# vtk DataFile Version 2.0
Really cool data
ASCII
DATASET POLYDATA
POINTS 200 float
-0.23529366742881447 0.01192066636557625 0.0
-0.7027038844734839 -5.021047506434256 0.0
-0.7181497902425061 -5.080079593040898 0.0
-0.4404881487957092 -7.250468490537453 0.0
-0.7181497902425061 -5.080079593040898 0.0
4.886206891305371 -8.091646984176908 0.0
-0.7027038844734839 -5.021047506434256 0.0
-4.8925593221799435 -7.942965897469685 0.0
-0.21279521542428714 -0.06968448253660928 0.0
-0.1910983734928336 -0.15249022269662146 0.0
-0.17030282462974355 -0.23660163003933404 0.0
-0.15049597003159756 -0.32211616069958593 0.0
-0.13175001111178347 -0.40912094090922424 0.0
-0.11411934557975928 -0.4976899509499148 0.0
-0.09763845462022658 -0.5878811836324391 0.0
-0.08232037355333749 -0.679734560243664 0.0
-0.06815621034931453 -0.7732694852214065 0.0
-0.055115662771063736 -0.8684836391704633 0.0
-0.04314884939390737 -0.9653526093858105 0.0
-0.03218963007438036 -1.0638298785430245 0.0
-0.0221602447989194 -1.1638485482264607 0.0
-0.01297724183419513 -1.2653241734522944 0.0
-0.004558425951091669 -1.3681583518901366 0.0
0.0031696702167748475 -1.4722437299490687 0.0
0.010264195204060647 -1.5774689140267633 0.0
0.016758989390790888 -1.6837254913984618 0.0
0.022658408427374738 -1.7909128401800103 0.0
0.02793265019444495 -1.8989449857427443 0.0
0.032514547391606335 -2.0077551659879505 0.0
0.03629803598209638 -2.117300460096438 0.0
0.03913810679256781 -2.2275643578044453 0.0
0.040852124791255495 -2.3385597953521273 0.0
0.04122214962304738 -2.4503283091503683 0.0
0.039998174726369295 -2.562939949614368 0.0
0.03690210931458 -2.6764895121543484 0.0
0.03163262452793475 -2.7910916595869755 0.0
0.023871270016269458 -2.9068714367597357 0.0
0.0132901903315632 -3.023954630760526 0.0
-0.0004374496443742548 -3.142450292536351 0.0
-0.017623586733540628 -3.2624292246312 0.0
-0.03854693674071817 -3.383895226065292 0.0
-0.06342970147423363 -3.506748765450488 0.0
-0.09240972987275133 -3.6307443853430383 0.0
-0.1255093980093972 -3.7554438104365486 0.0
-0.16260625812478474 -3.8801793065557795 0.0
-0.20340950091157822 -4.004034666750152 0.0
-0.24745035948179217 -4.125866711496844 0.0
-0.2940922652081792 -4.244378396618459 0.0
-0.3425628629709119 -4.358240128504993 0.0
-0.39200738204871927 -4.466242001909482 0.0
-0.44155244234519386 -4.567432257773397 0.0
-0.49036957841640405 -4.661208186978027 0.0
-0.5377283936133372 -4.7473425722587415 0.0
-0.5830292675119354 -4.825945334165141 0.0
-0.62581623610983 -4.897387317280437 0.0
-0.6657724247615465 -4.962210833750822 0.0
-0.7695807403891685 -5.140365835234342 0.0
-0.816494991596293 -5.19455357741189 0.0
-0.859021910339293 -5.243644255143281 0.0
-0.8973468267353439 -5.2885048920441635 0.0
-0.9316829813795482 -5.329869269495495 0.0
-0.9622520120498032 -5.368349770165875 0.0
-0.9892711530475233 -5.404453381271483 0.0
-1.0129455523827668 -5.438598470639427 0.0
-1.0334638276256145 -5.471130026325348 0.0
-1.0509961753821022 -5.502333234932678 0.0
-1.0656939710682132 -5.532444989715678 0.0
-1.0776902222297386 -5.561663296696263 0.0
-1.0871007157141515 -5.590155242420624 0.0
-1.094025440535652 -5.618063564553645 0.0
-1.0985501333405883 -5.645512019806163 0.0
-1.1007479210855424 -5.67261000966873 0.0
-1.100680954647746 -5.699456318253727 0.0
-1.0984020599874398 -5.726142778532817 0.0
-1.0939563736435831 -5.752756976433819 0.0
-1.0873829803367523 -5.779385278792906 0.0
-1.0787166240040187 -5.806115253836586 0.0
-1.067989475540442 -5.8330382141876225 0.0
-1.0552331127244399 -5.860251459309925 0.0
-1.0404804880995642 -5.887860916059367 0.0
-1.0237683741742483 -5.915983156611135 0.0
-1.0051397622215772 -5.944747972376072 0.0
-0.984646756894975 -5.974300418651931 0.0
-0.9623535744031766 -6.004802983445857 0.0
-0.9383401498952498 -6.036436979730289 0.0
-0.912705292091826 -6.069404376908379 0.0
-0.8855705953186854 -6.1039280754900105 0.0
-0.8570840016231757 -6.1402516873892505 0.0
-0.8274231931976029 -6.178637990287785 0.0
-0.7967984904503874 -6.219365823941919 0.0
-0.7654548394355869 -6.262725260553794 0.0
-0.7336730634292874 -6.309010050534753 0.0
-0.7017685840510232 -6.358509182733571 0.0
-0.6700890267230996 -6.411495171449096 0.0
-0.6390089631961836 -6.46821137294607 0.0
-0.6089219834477819 -6.528858514198312 0.0
-0.5802304453804487 -6.593580507371373 0.0
-0.5533317735112193 -6.662453473370509 0.0
-0.528603513759991 -6.735475933645056 0.0
-0.5063871033724697 -6.812562619879406 0.0
-0.48697101681825683 -6.893544881498755 0.0
-0.4705760719944515 -6.978173920784778 0.0
-0.4573432924458297 -7.066129849374083 0.0
-0.4473261490661558 -7.157034681770577 0.0
-0.6533529418832666 -5.112878313775421 0.0
-0.5793171902329778 -5.132556850292392 0.0
-0.4965107643622632 -5.140211234758642 0.0
-0.405683217776416 -5.136829926293297 0.0
-0.3078447468513763 -5.123486524196245 0.0
-0.2042243667944278 -5.101533432079337 0.0
-0.09619293631736854 -5.072753475268981 0.0
0.01484558039191395 -5.0394158870242265 0.0
0.12757242689950626 -5.004198055656152 0.0
0.24085629183086593 -4.9699779597003415 0.0
0.35381766054302494 -4.939556683610797 0.0
0.46584774220902436 -4.91539857234595 0.0
0.576590383570993 -4.899459223099888 0.0
0.6859001925331497 -4.8931260088469495 0.0
0.7937909223347284 -4.8972515839284245 0.0
0.9003857916650255 -4.912239950043233 0.0
1.0058747460686164 -4.938146692945513 0.0
1.1104839352029718 -4.974768772174289 0.0
1.21445371106839 -5.021712225134323 0.0
1.318028781978636 -5.078438269958142 0.0
1.4214548677032668 -5.144291590884464 0.0
1.5249824076999572 -5.2185187120416865 0.0
1.628873134994508 -5.3002822225934265 0.0
1.7334094586254016 -5.388677688478742 0.0
1.8388999712180423 -5.4827528087572714 0.0
1.9456831171554676 -5.581532371643588 0.0
2.054123212771978 -5.684043877089964 0.0
2.1646008020856233 -5.789343459462449 0.0
2.277494945650997 -5.896537269788777 0.0
2.393163972536363 -6.004802244961738 0.0
2.5119203615864842 -6.113400911766594 0.0
2.634006670687779 -6.221696837124785 0.0
2.759572170191778 -6.329171171260515 0.0
2.888651366716349 -6.435442082944327 0.0
3.0211451901772493 -6.540287235024669 0.0
3.1568029986975157 -6.6436651869117185 0.0
3.2952126047735226 -6.745735887973411 0.0
3.435793388411993 -6.8468681000879394 0.0
3.5778024727532065 -6.947631785622549 0.0
3.7203567174426584 -7.048768461345107 0.0
3.8624717625590166 -7.1511356773986785 0.0
4.003124485419373 -7.255632391661222 0.0
4.1413265581305865 -7.363107228033682 0.0
4.276204321731864 -7.474263836332685 0.0
4.40707731950685 -7.58957978576916 0.0
4.533516445295805 -7.709245587609206 0.0
4.655378374955362 -7.8331380991563675 0.0
4.772807869993584 -7.960831652069448 0.0
-0.8677436607800778 -5.115682785311472 0.0
-1.018253336708328 -5.186704917640845 0.0
-1.154651328316129 -5.241221531315121 0.0
-1.2782857201973394 -5.285015929071159 0.0
-1.3908112964202672 -5.322459767706064 0.0
-1.493833997778616 -5.3567784397698155 0.0
-1.588750366102411 -5.390344589368089 0.0
-1.6767016953423763 -5.424905564093832 0.0
-1.758585468078133 -5.461738279038444 0.0
-1.8350935317103207 -5.501749694371987 0.0
-1.906759659679688 -5.545541872704205 0.0
-1.9740078682566415 -5.593456337339469 0.0
-2.0371981922659925 -5.645608710580974 0.0
-2.0966666254828827 -5.701920054548926 0.0
-2.1527570852967455 -5.762148354645667 0.0
-2.2058443866398934 -5.825921842725229 0.0
-2.2563467222152047 -5.8927729300350284 0.0
-2.3047291030149495 -5.9621727122268915 0.0
-2.351497058989858 -6.033561573594013 0.0
-2.39718500319986 -6.106377023272456 0.0
-2.442340075399914 -6.180075026067779 0.0
-2.4875053975978516 -6.254146173022577 0.0
-2.5332042240257895 -6.3281257907421935 0.0
-2.5799277367256925 -6.401600672791927 0.0
-2.628125620280413 -6.474210721540126 0.0
-2.678201620606166 -6.545649856231011 0.0
-2.7305120388113284 -6.615664399055354 0.0
-2.7853678379066023 -6.684051685488893 0.0
-2.843038315622316 -6.750657696294935 0.0
-2.9037581971063906 -6.815377253291837 0.0
-2.9677344066303757 -6.878153071688037 0.0
-3.0351544625818714 -6.938976829647973 0.0
-3.1061951833183383 -6.997891078163404 0.0
-3.181031503178688 -7.05499212416416 0.0
-3.2598452164342686 -7.110433890878187 0.0
-3.3428316917842578 -7.1644315555679565 0.0
-3.4302072823793166 -7.217267041156083 0.0
-3.522211809399512 -7.26929262699751 0.0
-3.6191082045218965 -7.320934345442928 0.0
-3.7211765845221727 -7.372693119917096 0.0
-3.828699192790992 -7.425141039196022 0.0
-3.9419386507217493 -7.478912374716702 0.0
-4.061102252085272 -7.534683103508996 0.0
-4.186294299629286 -7.5931366574084995 0.0
-4.317462544593652 -7.654915130983428 0.0
-4.454339273802169 -7.720554110032383 0.0
-4.596395236078228 -7.790411119341213 0.0
-4.742821923057575 -7.864602012026274 0.0
POLYGONS 196 588
2 0 8
2 8 9
2 9 10
2 10 11
2 11 12
2 12 13
2 13 14
2 14 15
2 15 16
2 16 17
2 17 18
2 18 19
2 19 20
2 20 21
2 21 22
2 22 23
2 23 24
2 24 25
2 25 26
2 26 27
2 27 28
2 28 29
2 29 30
2 30 31
2 31 32
2 32 33
2 33 34
2 34 35
2 35 36
2 36 37
2 37 38
2 38 39
2 39 40
2 40 41
2 41 42
2 42 43
2 43 44
2 44 45
2 45 46
2 46 47
2 47 48
2 48 49
2 49 50
2 50 51
2 51 52
2 52 53
2 53 54
2 54 55
2 55 1
2 2 56
2 56 57
2 57 58
2 58 59
2 59 60
2 60 61
2 61 62
2 62 63
2 63 64
2 64 65
2 65 66
2 66 67
2 67 68
2 68 69
2 69 70
2 70 71
2 71 72
2 72 73
2 73 74
2 74 75
2 75 76
2 76 77
2 77 78
2 78 79
2 79 80
2 80 81
2 81 82
2 82 83
2 83 84
2 84 85
2 85 86
2 86 87
2 87 88
2 88 89
2 89 90
2 90 91
2 91 92
2 92 93
2 93 94
2 94 95
2 95 96
2 96 97
2 97 98
2 98 99
2 99 100
2 100 101
2 101 102
2 102 103
2 103 3
2 4 104
2 104 105
2 105 106
2 106 107
2 107 108
2 108 109
2 109 110
2 110 111
2 111 112
2 112 113
2 113 114
2 114 115
2 115 116
2 116 117
2 117 118
2 118 119
2 119 120
2 120 121
2 121 122
2 122 123
2 123 124
2 124 125
2 125 126
2 126 127
2 127 128
2 128 129
2 129 130
2 130 131
2 131 132
2 132 133
2 133 134
2 134 135
2 135 136
2 136 137
2 137 138
2 138 139
2 139 140
2 140 141
2 141 142
2 142 143
2 143 144
2 144 145
2 145 146
2 146 147
2 147 148
2 148 149
2 149 150
2 150 151
2 151 5
2 6 152
2 152 153
2 153 154
2 154 155
2 155 156
2 156 157
2 157 158
2 158 159
2 159 160
2 160 161
2 161 162
2 162 163
2 163 164
2 164 165
2 165 166
2 166 167
2 167 168
2 168 169
2 169 170
2 170 171
2 171 172
2 172 173
2 173 174
2 174 175
2 175 176
2 176 177
2 177 178
2 178 179
2 179 180
2 180 181
2 181 182
2 182 183
2 183 184
2 184 185
2 185 186
2 186 187
2 187 188
2 188 189
2 189 190
2 190 191
2 191 192
2 192 193
2 193 194
2 194 195
2 195 196
2 196 197
2 197 198
2 198 199
2 199 7
POINT_DATA 200
SCALARS Labels double 1
LOOKUP_TABLE default
1.0 1.0 1.0 1.0 1.0 1.0 1.0 1.0 1.0 1.0 1.0 1.0 1.0 1.0 1.0 1.0 1.0 1.0 1.0 1.0 1.0 1.0 1.0 1.0 1.0 1.0 1.0 1.0 1.0 1.0 1.0 1.0 1.0 1.0 1.0 1.0 1.0 1.0 1.0 1.0 1.0 1.0 1.0 1.0 1.0 1.0 1.0 1.0 1.0 1.0 1.0 1.0 1.0 1.0 1.0 1.0 1.0 1.0 1.0 1.0 1.0 1.0 1.0 1.0 1.0 1.0 1.0 1.0 1.0 1.0 1.0 1.0 1.0 1.0 1.0 1.0 1.0 1.0 1.0 1.0 1.0 1.0 1.0 1.0 1.0 1.0 1.0 1.0 1.0 1.0 1.0 1.0 1.0 1.0 1.0 1.0 1.0 1.0 1.0 1.0 1.0 1.0 1.0 1.0 1.0 1.0 1.0 1.0 1.0 1.0 1.0 1.0 1.0 1.0 1.0 1.0 1.0 1.0 1.0 1.0 1.0 1.0 1.0 1.0 1.0 1.0 1.0 1.0 1.0 1.0 1.0 1.0 1.0 1.0 1.0 1.0 1.0 1.0 1.0 1.0 1.0 1.0 1.0 1.0 1.0 1.0 1.0 1.0 1.0 1.0 1.0 1.0 1.0 1.0 1.0 1.0 1.0 1.0 1.0 1.0 1.0 1.0 1.0 1.0 1.0 1.0 1.0 1.0 1.0 1.0 1.0 1.0 1.0 1.0 1.0 1.0 1.0 1.0 1.0 1.0 1.0 1.0 1.0 1.0 1.0 1.0 1.0 1.0 1.0 1.0 1.0 1.0 1.0 1.0 1.0 1.0 1.0 1.0 1.0 1.0