# vtk DataFile Version 2.0
Really cool data
ASCII
DATASET POLYDATA
POINTS 200 float
-1.2076495055940677 0.2205343722901566 0.0
-0.7987555798174208 -3.389220764819625 0.0
-0.7634496066075004 -3.4826786308291435 0.0
-1.050959388783541 -7.675389629219637 0.0
-0.7634496066075004 -3.4826786308291435 0.0
4.54640288980342 -8.678199172225963 0.0
-0.7987555798174208 -3.389220764819625 0.0
-6.055634439014928 -7.854452043393757 0.0
-1.1993047317696028 0.14686590161364313 0.0
-1.190959957945138 0.07319743093712966 0.0
-1.1826151833590488 -0.00047104646307669085 0.0
-1.174270410296208 -0.07413951041589728 0.0
-1.1659256372333675 -0.14780797436871784 0.0
-1.1575808611240297 -0.22147646521630998 0.0
-1.1492360911076864 -0.29514490227435897 0.0
-1.1408913149983486 -0.36881339312195116 0.0
-1.1325465388890108 -0.44248188396954324 0.0
-1.1242017688726673 -0.5161503210275923 0.0
-1.1158569927633295 -0.5898188118751844 0.0
-1.107512216653992 -0.6634873027227766 0.0
-1.0991674466376484 -0.7371557397808255 0.0
-1.090822676621305 -0.8108241768388745 0.0
-1.0824779066049615 -0.8844926138969235 0.0
-1.0741331244026293 -0.9581611585340589 0.0
-1.065788354386286 -1.0318295955921077 0.0
-1.057443572183954 -1.1054981402292432 0.0
-1.0490988021676104 -1.1791665772872921 0.0
-1.040754032151267 -1.252835014345341 0.0
-1.0324092621349235 -1.32650345140339 0.0
-1.0240644799325915 -1.4001719960405254 0.0
-1.015719709916248 -1.4738404330985744 0.0
-1.007374927713916 -1.5475089777357098 0.0
-0.9990301576975725 -1.6211774147937588 0.0
-0.9906853876812292 -1.6948458518518077 0.0
-0.9823406176648857 -1.7685142889098566 0.0
-0.973995823276565 -1.8421829411260782 0.0
-0.9656510532602215 -1.915851378184127 0.0
-0.9573062832438781 -1.989519815242176 0.0
-0.9489615132275346 -2.063188252300225 0.0
-0.9406167432111912 -2.1368566893582743 0.0
-0.9322719731948477 -2.2105251264163233 0.0
-0.9239272031785042 -2.284193563474372 0.0
-0.9155824087901836 -2.3578622156905937 0.0
-0.9072376387738401 -2.4315306527486427 0.0
-0.8988928687574966 -2.5051990898066916 0.0
-0.8905480987411533 -2.5788675268647405 0.0
-0.8822033287248098 -2.65253596392279 0.0
-0.8738585343364891 -2.7262046161390114 0.0
-0.8655137643201457 -2.7998730531970604 0.0
-0.8571689943038022 -2.8735414902551093 0.0
-0.8488241999154815 -2.947210142471331 0.0
-0.840479429899138 -3.0208785795293798 0.0
-0.8321346598827947 -3.094547016587429 0.0
-0.8237898898664512 -3.168215453645478 0.0
-0.8154451198501078 -3.241883890703527 0.0
-0.8071003498337643 -3.315552327761576 0.0
-0.7693171530623009 -3.568244159655381 0.0
-0.7751846995171014 -3.6538096884816182 0.0
-0.7810522465074307 -3.7393752251173886 0.0
-0.7869197924267024 -3.824940746134093 0.0
-0.7927873383459743 -3.9105062671507977 0.0
-0.7986548864073608 -3.9960718194056337 0.0
-0.8045224301845179 -4.081637309184207 0.0
-0.8103899782459044 -4.167202861439042 0.0
-0.8162575263072911 -4.252768413693879 0.0
-0.822125070084448 -4.338333903472452 0.0
-0.8279926181458347 -4.4238994557272875 0.0
-0.8338601662072213 -4.509465007982124 0.0
-0.8397277099843783 -4.595030497760697 0.0
-0.8455952537615352 -4.68059598753927 0.0
-0.8514627975386923 -4.766161477317844 0.0
-0.8573303498843085 -4.851727092048942 0.0
-0.8631978936614655 -4.937292581827515 0.0
-0.8690654460070817 -5.022858196558614 0.0
-0.8749329897842387 -5.108423686337187 0.0
-0.8808005335613958 -5.19398917611576 0.0
-0.8866680773385527 -5.2795546658943335 0.0
-0.8925356296841689 -5.365120280625432 0.0
-0.8984031734613259 -5.4506857704040055 0.0
-0.9042707258069421 -5.536251385135104 0.0
-0.9101382695840992 -5.6218168749136765 0.0
-0.9160058133612561 -5.707382364692251 0.0
-0.9218733571384131 -5.792947854470824 0.0
-0.9277409180524886 -5.878513594154446 0.0
-0.9336084618296456 -5.96407908393302 0.0
-0.9394760056068026 -6.049644573711594 0.0
-0.9453435493839596 -6.135210063490167 0.0
-0.9512110931611166 -6.220775553268741 0.0
-0.9570786369382736 -6.306341043047314 0.0
-0.9629461807154306 -6.391906532825887 0.0
-0.968813741629506 -6.477472272509511 0.0
-0.974681285406663 -6.563037762288084 0.0
-0.98054882918382 -6.648603252066657 0.0
-0.986416372960977 -6.734168741845231 0.0
-0.992283916738134 -6.819734231623804 0.0
-0.9981514776522095 -6.905299971307427 0.0
-1.0040190214293665 -6.990865461086001 0.0
-1.0098865652065234 -7.076430950864574 0.0
-1.015754126120599 -7.161996690548197 0.0
-1.0216216698977558 -7.247562180326771 0.0
-1.027489213674913 -7.333127670105344 0.0
-1.03335675745207 -7.418693159883917 0.0
-1.0392243012292268 -7.50425864966249 0.0
-1.045091845006384 -7.589824139441064 0.0
-0.6550852721663404 -3.5887096601137416 0.0
-0.5467209377251804 -3.694740689398339 0.0
-0.4383565933936494 -3.800771728360348 0.0
-0.3299922688428604 -3.906802747967535 0.0
-0.22162794429207144 -4.012833767574722 0.0
-0.11326358017979843 -4.118864825891553 0.0
-0.004899295190493369 -4.224895806789095 0.0
0.10346506892177953 -4.330926865105926 0.0
0.21182943303405255 -4.436957923422758 0.0
0.3201937180233575 -4.5429889043203 0.0
0.4285580821356306 -4.649019962637132 0.0
0.5369224462479035 -4.755051020953963 0.0
0.6452867312372085 -4.861082001851505 0.0
0.7536510162265136 -4.967112982749047 0.0
0.8620153012158186 -5.073143963646589 0.0
0.9703797444510595 -5.17917509938271 0.0
1.0787440294403647 -5.285206080280252 0.0
1.1871084726756056 -5.391237216016372 0.0
1.2954727576649105 -5.4972681969139146 0.0
1.4038370426542155 -5.603299177811457 0.0
1.5122013276435204 -5.709330158708999 0.0
1.6205657708787617 -5.815361294445119 0.0
1.7289300558680667 -5.9213922753426615 0.0
1.8372944991033076 -6.027423411078782 0.0
1.9456587840926125 -6.133454391976324 0.0
2.0540230690819175 -6.239485372873866 0.0
2.1623873540712224 -6.3455163537714085 0.0
2.2707519555523996 -6.451547644346107 0.0
2.3791162405417046 -6.557578625243649 0.0
2.4874805255310095 -6.663609606141192 0.0
2.5958448105203145 -6.769640587038734 0.0
2.7042090955096194 -6.875671567936276 0.0
2.8125733804989244 -6.981702548833818 0.0
2.9209376654882298 -7.087733529731361 0.0
3.0293022669694065 -7.193764820306059 0.0
3.1376665519587115 -7.299795801203601 0.0
3.2460308369480164 -7.405826782101143 0.0
3.3543951219373214 -7.511857762998686 0.0
3.4627594069266263 -7.617888743896228 0.0
3.571124008407803 -7.723920034470926 0.0
3.679488293397108 -7.829951015368469 0.0
3.787852578386413 -7.935981996266011 0.0
3.8962171798675906 -8.04201328684071 0.0
4.004581464856895 -8.148044267738252 0.0
4.1129457498462 -8.254075248635793 0.0
4.221310034835505 -8.360106229533336 0.0
4.32967431982481 -8.466137210430878 0.0
4.438038604814115 -8.57216819132842 0.0
-0.906038819643723 -3.480347931903004 0.0
-1.0133220594700252 -3.571475098986383 0.0
-1.1206053090880275 -3.6626022743869036 0.0
-1.2278885391226297 -3.7537294331531412 0.0
-1.335171769157232 -3.844856591919379 0.0
-1.4424550383586339 -3.9359837839541822 0.0
-1.5497382292264366 -4.027110909451855 0.0
-1.6570214984278384 -4.118238101486658 0.0
-1.7643047676292405 -4.209365293521461 0.0
-1.8715879584970432 -4.300492419019133 0.0
-1.978871227698445 -4.391619611053937 0.0
-2.086154496899847 -4.48274680308874 0.0
-2.1934376877676494 -4.573873928586412 0.0
-2.3007208786354525 -4.665001054084084 0.0
-2.4080040695032547 -4.756128179581756 0.0
-2.515287417038256 -4.847255438153691 0.0
-2.622570607906059 -4.938382563651363 0.0
-2.72985395544106 -5.0295098222232975 0.0
-2.837137146308863 -5.1206369477209694 0.0
-2.9444203371766653 -5.211764073218641 0.0
-3.0517035280444684 -5.302891198716313 0.0
-3.158986875579469 -5.394018457288248 0.0
-3.266270066447272 -5.48514558278592 0.0
-3.3735534139822736 -5.576272841357855 0.0
-3.480836604850076 -5.667399966855527 0.0
-3.588119795717878 -5.7585270923532 0.0
-3.6954029865856812 -5.849654217850871 0.0
-3.802686490787881 -5.940781609497067 0.0
-3.9099696816556833 -6.03190873499474 0.0
-4.017252872523486 -6.123035860492412 0.0
-4.124536063391289 -6.214162985990084 0.0
-4.231819254259092 -6.305290111487757 0.0
-4.339102445126894 -6.396417236985428 0.0
-4.446385635994697 -6.487544362483101 0.0
-4.553669140196897 -6.578671754129298 0.0
-4.660952331064699 -6.66979887962697 0.0
-4.768235521932502 -6.760926005124642 0.0
-4.875518712800305 -6.8520531306223145 0.0
-4.982801903668107 -6.9431802561199865 0.0
-5.090085407870307 -7.034307647766182 0.0
-5.19736859873811 -7.125434773263855 0.0
-5.304651789605912 -7.216561898761527 0.0
-5.411935293808112 -7.3076892904077235 0.0
-5.519218484675915 -7.3988164159053955 0.0
-5.626501675543717 -7.489943541403068 0.0
-5.73378486641152 -7.5810706669007395 0.0
-5.8410680572793225 -7.672197792398412 0.0
-5.948351248147126 -7.763324917896085 0.0
POLYGONS 196 588
2 0 8
2 8 9
2 9 10
2 10 11
2 11 12
2 12 13
2 13 14
2 14 15
2 15 16
2 16 17
2 17 18
2 18 19
2 19 20
2 20 21
2 21 22
2 22 23
2 23 24
2 24 25
2 25 26
2 26 27
2 27 28
2 28 29
2 29 30
2 30 31
2 31 32
2 32 33
2 33 34
2 34 35
2 35 36
2 36 37
2 37 38
2 38 39
2 39 40
2 40 41
2 41 42
2 42 43
2 43 44
2 44 45
2 45 46
2 46 47
2 47 48
2 48 49
2 49 50
2 50 51
2 51 52
2 52 53
2 53 54
2 54 55
2 55 1
2 2 56
2 56 57
2 57 58
2 58 59
2 59 60
2 60 61
2 61 62
2 62 63
2 63 64
2 64 65
2 65 66
2 66 67
2 67 68
2 68 69
2 69 70
2 70 71
2 71 72
2 72 73
2 73 74
2 74 75
2 75 76
2 76 77
2 77 78
2 78 79
2 79 80
2 80 81
2 81 82
2 82 83
2 83 84
2 84 85
2 85 86
2 86 87
2 87 88
2 88 89
2 89 90
2 90 91
2 91 92
2 92 93
2 93 94
2 94 95
2 95 96
2 96 97
2 97 98
2 98 99
2 99 100
2 100 101
2 101 102
2 102 103
2 103 3
2 4 104
2 104 105
2 105 106
2 106 107
2 107 108
2 108 109
2 109 110
2 110 111
2 111 112
2 112 113
2 113 114
2 114 115
2 115 116
2 116 117
2 117 118
2 118 119
2 119 120
2 120 121
2 121 122
2 122 123
2 123 124
2 124 125
2 125 126
2 126 127
2 127 128
2 128 129
2 129 130
2 130 131
2 131 132
2 132 133
2 133 134
2 134 135
2 135 136
2 136 137
2 137 138
2 138 139
2 139 140
2 140 141
2 141 142
2 142 143
2 143 144
2 144 145
2 145 146
2 146 147
2 147 148
2 148 149
2 149 150
2 150 151
2 151 5
2 6 152
2 152 153
2 153 154
2 154 155
2 155 156
2 156 157
2 157 158
2 158 159
2 159 160
2 160 161
2 161 162
2 162 163
2 163 164
2 164 165
2 165 166
2 166 167
2 167 168
2 168 169
2 169 170
2 170 171
2 171 172
2 172 173
2 173 174
2 174 175
2 175 176
2 176 177
2 177 178
2 178 179
2 179 180
2 180 181
2 181 182
2 182 183
2 183 184
2 184 185
2 185 186
2 186 187
2 187 188
2 188 189
2 189 190
2 190 191
2 191 192
2 192 193
2 193 194
2 194 195
2 195 196
2 196 197
2 197 198
2 198 199
2 199 7
POINT_DATA 200
SCALARS Labels double 1
LOOKUP_TABLE default
1.0 1.0 1.0 1.0 1.0 1.0 1.0 1.0 1.0 1.0 1.0 1.0 1.0 1.0 1.0 1.0 1.0 1.0 1.0 1.0 1.0 1.0 1.0 1.0 1.0 1.0 1.0 1.0 1.0 1.0 1.0 1.0 1.0 1.0 1.0 1.0 1.0 1.0 1.0 1.0 1.0 1.0 1.0 1.0 1.0 1.0 1.0 1.0 1.0 1.0 1.0 1.0 1.0 1.0 1.0 1.0 1.0 1.0 1.0 1.0 1.0 1.0 1.0 1.0 1.0 1.0 1.0 1.0 1.0 1.0 1.0 1.0 1.0 1.0 1.0 1.0 1.0 1.0 1.0 1.0 1.0 1.0 1.0 1.0 1.0 1.0 1.0 1.0 1.0 1.0 1.0 1.0 1.0 1.0 1.0 1.0 1.0 1.0 1.0 1.0 1.0 1.0 1.0 1.0 1.0 1.0 1.0 1.0 1.0 1.0 1.0 1.0 1.0 1.0 1.0 1.0 1.0 1.0 1.0 1.0 1.0 1.0 1.0 1.0 1.0 1.0 1.0 1.0 1.0 1.0 1.0 1.0 1.0 1.0 1.0 1.0 1.0 1.0 1.0 1.0 1.0 1.0 1.0 1.0 1.0 1.0 1.0 1.0 1.0 1.0 1.0 1.0 1.0 1.0 1.0 1.0 1.0 1.0 1.0 1.0 1.0 1.0 1.0 1.0 1.0 1.0 1.0 1.0 1.0 1.0 1.0 1.0 1.0 1.0 1.0 1.0 1.0 1.0 1.0 1.0 1.0 1.0 1.0 1.0 1.0 1.0 1.0 1.0 1.0 1.0 1.0 1.0 1.0 1.0 1.0 1.0 1.0 1.0 1.0 1.0