# vtk DataFile Version 2.0
Really cool data
ASCII
DATASET POLYDATA
POINTS 64 float
30.642412185668945 27.430763244628906 23.826969146728516
35.443782806396484 25.40726661682129 26.683700561523438
32.975006103515625 22.226200103759766 27.89044189453125
19.135414123535156 12.309253692626953 24.1574764251709
11.360859870910645 6.002923488616943 18.796085357666016
23.07761573791504 10.173636436462402 24.033479690551758
32.13486862182617 16.76494789123535 26.35957145690918
36.28431701660156 20.60348129272461 25.93966293334961
31.352325439453125 27.486684799194336 24.23294448852539
32.03108596801758 27.474624633789062 24.620487213134766
32.67190170288086 27.39097785949707 24.98722267150879
33.269248962402344 27.23488426208496 25.33148765563965
33.818485260009766 27.00718879699707 25.65215492248535
34.315364837646484 26.709495544433594 25.948450088500977
34.755523681640625 26.34330177307129 26.21971321105957
35.13384246826172 25.90938949584961 26.465177536010742
35.35614013671875 25.212507247924805 26.866077423095703
35.242637634277344 24.993497848510742 27.043537139892578
35.0979118347168 24.74597930908203 27.21459197998047
34.91489028930664 24.464445114135742 27.377105712890625
34.6842041015625 24.141822814941406 27.527978897094727
34.393428802490234 23.769058227539062 27.662700653076172
34.02621078491211 23.33479881286621 27.774747848510742
33.56169891357422 22.82543182373047 27.854854583740234
31.935184478759766 21.40320587158203 27.839841842651367
30.618640899658203 20.394603729248047 27.6571044921875
29.052478790283203 19.2347469329834 27.33306121826172
27.334644317626953 17.99640464782715 26.901147842407227
25.57876205444336 16.750669479370117 26.41718864440918
23.85831642150879 15.543045997619629 25.914518356323242
22.2042236328125 14.39706039428711 25.386884689331055
20.627737045288086 13.320381164550781 24.8077392578125
18.093299865722656 11.518037796020508 23.62046241760254
17.100526809692383 10.755937576293945 23.046358108520508
16.15641975402832 10.01956844329834 22.445571899414062
15.258913040161133 9.306145668029785 21.829082489013672
14.405088424682617 8.613154411315918 21.206674575805664
13.59164047241211 7.9381818771362305 20.58629608154297
12.815231323242188 7.279088973999023 19.9743595123291
12.072637557983398 6.634276866912842 19.376129150390625
19.947092056274414 12.344756126403809 24.4606990814209
20.68502426147461 12.318053245544434 24.682905197143555
21.333616256713867 12.221925735473633 24.822202682495117
21.881391525268555 12.051905632019043 24.878801345825195
22.3221378326416 11.806961059570312 24.85458755493164
22.655288696289062 11.489688873291016 24.75289535522461
22.885622024536133 11.10591983795166 24.578277587890625
23.022308349609375 10.663970947265625 24.336332321166992
33.280574798583984 21.865907669067383 27.889842987060547
33.484825134277344 21.430294036865234 27.847373962402344
33.588539123535156 20.925582885742188 27.7637882232666
33.591156005859375 20.35700035095215 27.638687133789062
33.49187469482422 19.72958755493164 27.470905303955078
33.29105758666992 19.048980712890625 27.259090423583984
32.99198913574219 18.322126388549805 27.00246238708496
32.602333068847656 17.55752182006836 26.701683044433594
35.76741027832031 25.03246307373047 26.692853927612305
36.03948974609375 24.61566925048828 26.680442810058594
36.258758544921875 24.158628463745117 26.6464900970459
36.42299270629883 23.662389755249023 26.590604782104492
36.52903747558594 23.127437591552734 26.511974334716797
36.57290267944336 22.55389976501465 26.409366607666016
36.54994201660156 21.941808700561523 26.281143188476562
36.45525360107422 21.291385650634766 26.125307083129883
POLYGONS 63 189
2 0 8
2 8 9
2 9 10
2 10 11
2 11 12
2 12 13
2 13 14
2 14 15
2 15 1
2 1 16
2 16 17
2 17 18
2 18 19
2 19 20
2 20 21
2 21 22
2 22 23
2 23 2
2 2 24
2 24 25
2 25 26
2 26 27
2 27 28
2 28 29
2 29 30
2 30 31
2 31 3
2 3 32
2 32 33
2 33 34
2 34 35
2 35 36
2 36 37
2 37 38
2 38 39
2 39 4
2 3 40
2 40 41
2 41 42
2 42 43
2 43 44
2 44 45
2 45 46
2 46 47
2 47 5
2 2 48
2 48 49
2 49 50
2 50 51
2 51 52
2 52 53
2 53 54
2 54 55
2 55 6
2 1 56
2 56 57
2 57 58
2 58 59
2 59 60
2 60 61
2 61 62
2 62 63
2 63 7
POINT_DATA 64
SCALARS Labels double 1
LOOKUP_TABLE default
101.0 101.0 101.0 101.0 101.0 101.0 101.0 101.0 101.0 101.0 101.0 101.0 101.0 101.0 101.0 101.0 101.0 101.0 101.0 101.0 101.0 101.0 101.0 101.0 101.0 101.0 101.0 101.0 101.0 101.0 101.0 101.0 101.0 101.0 101.0 101.0 101.0 101.0 101.0 101.0 101.0 101.0 101.0 101.0 101.0 101.0 101.0 101.0 101.0 101.0 101.0 101.0 101.0 101.0 101.0 101.0 101.0 101.0 101.0 101.0 101.0 101.0 101.0 101.0