# vtk DataFile Version 2.0
Really cool data
ASCII
DATASET POLYDATA
POINTS 550 float
304.0 254.0 50.0
304.78118251840084 255.06868488150602 51.87042624147182
305.7338727381115 255.97712388383724 53.7241613055858
306.4064304049032 256.8747622311098 55.861680382509675
307.12509571049964 257.59357073965595 58.13847619880207
307.9526451776845 258.26612953187356 60.352629735761155
308.0277783826421 259.21907055138877 63.03592077762785
308.85000000000036 260.0000000000002 65.15000000000009
309.3022435721082 260.79102080546585 67.62103531305196
310.01151065732216 261.24170042541533 70.17536047018858
310.011947974966 262.41328660434925 72.71762256396083
310.82078288296384 263.1250018353541 74.91135813882195
311.2701991873053 263.94104634155144 77.36018304257253
312.01100278736897 264.6914691582626 79.58324234008317
312.00000000000017 265.6300000000002 82.3700000000001
312.7919126102578 266.30286196981723 84.61951113341475
313.0008127933368 267.4826907162132 86.94506778260825
312.9999984901556 268.6605009067742 89.48234927192259
313.0005301642543 270.04643084193305 91.81124061704216
312.7304554862694 273.30117610700074 92.00023033632968
311.98514429930367 276.2478478038811 91.96233386040706
312.0000000000001 279.2200000000004 92.78000000000007
312.09573560748333 280.310732381883 95.29725349667054
312.92918416295294 281.5304916716418 96.96888359644507
313.1858777339453 283.5306567687912 98.40603574670807
314.40374095075504 284.1274107026687 99.32587952946925
315.2740639715922 284.5389223950859 99.87428773253106
315.8015800453445 285.1799979394045 100.50749093077096
316.4836716609923 285.89696483860496 100.90502630283173
317.263098289502 286.8214498452376 100.99708666933746
318.16930406955026 287.58190805853553 101.12628267580413
318.8658054548794 288.2570305299595 101.5492882773762
319.7461947402916 288.7363284957655 101.99326288891672
320.7930119136126 289.0103614006215 102.4622711051935
321.8087255656481 289.00026003049504 103.25224738357988
322.70533156341446 288.99994210803595 104.15186729553564
323.58575972117325 288.99998922480285 105.06731192670722
324.40565107840087 288.99999891337524 106.04332956458646
325.08791568321 288.9999999279509 107.15698234569466
325.7966225538895 288.9999999972209 108.24419377537657
326.69535087950095 289.00000005817054 109.14138375630698
327.5773037064058 289.0000011351382 110.05534822135424
328.44738458613324 289.000013254926 110.98117360702474
329.5284259180469 289.0000975338473 111.69596648760033
331.01744590821494 289.0001020843498 112.00286032097549
332.50137173520994 288.9912574142801 112.32368451150948
333.5756277263972 289.27861091218364 112.75777143398913
334.44549191841924 289.72593783758424 113.23409971880994
335.31948766556474 290.00921973543734 113.85720977026243
336.22 290.0 114.78
334.9999998900168 277.18487479852746 118.45018107131045
334.98475141345034 267.524633270305 121.71865218624248
335.99796574592165 259.49681444943565 125.83773902066658
335.0320891918576 250.42794062429155 128.71332277711554
335.90896456494846 240.7015120243074 131.0079645777885
336.95886658850924 231.4838900153592 133.77142988995934
337.63247413105285 222.07634432621606 136.67400889543597
341.7649856217617 215.89904311852476 139.36231457063963
344.6859238022821 210.48740286438667 144.02320902261877
345.8181201229557 204.0926339604055 149.491100858706
347.8404716255537 198.48582001600968 154.85638330982835
350.16256800753195 193.1733367360091 160.21685188027996
352.4549300754762 187.84097088488238 165.58511495184186
354.66483312040276 183.01215390165532 171.5467780153273
355.08096923272603 178.09583515572226 179.18411755470126
355.0120995203563 173.1800581150536 187.42835557384703
354.49658200057286 168.3298321872767 194.99059833344913
351.52741686036376 165.04738178545804 201.74654026581734
349.42204954398306 160.9473977698085 208.55611785208077
347.8518046067721 155.73773382636335 214.67793421283707
345.609608418244 149.3034714702876 219.34643664578238
340.1788415704109 143.43365383353623 218.7741840886532
332.6785204972088 145.48239155599632 216.8732125673549
329.08168981052285 150.8879578622356 221.46552246514565
325.72182464508563 152.05379559396465 229.41188300879776
320.37500451473426 146.76047831703244 232.59917939009992
315.2042400730993 138.91404606372924 231.26193259426023
306.78814747448564 135.92531805379818 231.73086634058149
298.2419235630115 136.205850149137 236.06192555426006
292.938321077041 139.6584129140563 241.16672955887938
286.92058535205575 140.4558539830505 243.11850399532267
277.55455912727007 136.05820775177796 243.0621730566962
267.70455006853365 133.75598086566654 242.51059548009803
264.78751280058344 127.18937134955509 238.91092732742527
264.62499439637844 119.73768111573439 233.59363962960313
259.9868272221153 115.21919755406756 229.60143014281886
251.57598012603304 114.2428804405687 226.55938664350128
243.83785903165298 114.60956947327107 222.74930789901288
238.6842064344303 110.06943946590052 218.89937317243545
233.25822030571084 107.14000361300157 215.42196246050412
225.40908524449904 110.91679108590414 214.53625762449965
217.05470873557815 114.82429738938403 215.0583457164387
208.87448735119997 117.45785150219581 214.6555585313121
201.88373803098239 121.25465288000883 212.34115558649714
196.55049042996527 124.60673962555025 207.94445803157038
191.0864255772732 125.73333236145683 202.2524723304458
189.20972658320014 121.80468753191757 194.92499023854396
186.6256072882891 117.39361484184849 189.01505850784844
183.95255962676725 110.02400196645368 185.94253034804385
183.0 100.0 184.0
337.22767349002584 289.8443717403763 115.63584932867812
337.99687608350354 289.0056990319136 115.99610592038337
338.62288692192004 288.0071778843792 116.36973102796391
339.3528751328807 287.23741676365836 116.8399156049054
339.84117484734276 286.25678836246533 117.35368611714392
340.1380111098604 285.0561092825023 117.83284519185254
340.59831822071015 284.04357612737385 118.34155199863996
341.3089805604314 283.26178466834887 118.82757794213492
341.97705645830075 282.4377083204978 119.31465310900111
342.55921707297887 281.6866144975864 119.95909406738221
343.41637764486427 281.16957534393106 120.57290214739467
344.52590695215645 281.0062891760238 121.27637528216972
345.6268359466142 281.00522446779513 122.13747831222403
346.9503036824257 280.99756774733964 122.80238208525937
348.4371776393716 281.29603771787316 122.99550540041724
349.6156480228525 282.0938475267703 122.99858589063906
350.6056080926255 283.0813668022445 123.0002245321929
351.59671441482607 284.0697637285008 122.99992259182697
352.5798909628707 285.06562089401865 123.0000203193836
353.58843157232576 286.0364279451143 122.99999614144573
354.48106100266955 287.1224185224451 122.99999387043498
354.9520941756198 288.63244788402204 123.00002837713092
355.0133662892568 290.5414434796216 122.99989365604412
354.99328180207107 292.54185242418976 123.00038966214471
354.77671049082494 294.29663470298357 122.99855464650913
354.1606573090335 295.6557619828377 123.00500920723938
353.4976512154842 296.9995236108712 122.97834817176377
352.87675884060434 298.2622811399981 123.07087596714662
352.18521551233493 299.13477168914056 123.48393115557461
351.4727163904138 299.98228580404725 123.90743782730272
350.58539824640286 300.9623805141347 124.0185315921136
349.55053979311674 301.9250435087425 124.00031450789152
348.40636413005666 302.7779674886805 123.98265594756056
347.18531922696263 303.46931164371506 124.0483870934594
346.20757113104077 304.07082427247815 124.45297435723612
345.36485828072813 304.7662741548194 124.89398194815764
344.400012108465 305.4520697044441 125.2096604855951
343.5167106113847 306.0704737722081 125.69810973604069
342.6683873084902 306.6921150440256 126.20491311273865
341.67786092640597 307.0338777329765 126.85244923646017
340.93870441251846 307.4222250071499 127.70350674150208
340.3171339992494 308.03929962355045 128.44565345055418
339.99433718738265 308.6938602369435 129.4424731088867
339.99749797253025 309.41094078491614 130.72494838374647
340.0111331031388 309.8560668172681 132.23542459863128
340.3921925386714 310.00983680037217 133.68113209811125
340.858376497086 310.3943138985347 134.81114980334308
341.002158295202 311.392069184059 135.6439610006555
340.9998381991864 313.02969826233107 135.99776044373138
341.0 314.85 135.85
345.55322495140143 312.0083121879031 139.72459935530657
349.19720633362795 312.0022690537921 141.2384151484936
352.35355410281636 311.47241486898713 142.7868429121622
355.11472642255654 309.45678550534967 143.15494494919056
357.8024625177445 307.70655720384525 143.9035377862529
359.483261325321 305.19631210308506 144.88702666331375
361.1941096548177 302.551295171085 145.71088555178534
362.12169036019475 299.796322706583 147.19701743433342
362.8240385152983 297.0337071618309 148.91674730690644
363.8651559119015 295.0194243687632 151.04047611003685
364.02454736310983 293.00203687215594 154.0419679990836
364.0252701039425 291.22446205607554 157.4391232771233
364.0373711040294 290.62633650561764 162.01917083463104
367.07490522636266 289.51485100498905 163.017219363897
371.44242411480604 289.5634025469461 163.98055926879294
371.10838507961006 285.7156039783251 164.8951452927434
369.9173645040913 281.12253376440634 165.4039529381361
368.59360079705533 278.0003429988441 165.83614566147907
367.3496960740964 274.75399298451356 166.6096204948547
366.4941861818485 271.6831613547904 167.83607927557745
365.3276448393833 268.8408812384059 169.01227072255804
364.8907203126547 265.88678762363764 170.79756633137075
364.35038945528504 263.1250026060269 172.67376678168196
363.9248958488853 260.2585883965034 174.5594444975839
364.02057633023674 257.0302794445606 176.60518966280446
363.9950137284686 254.25616359595554 178.98152925310575
363.9989711284027 251.70236812506533 181.61613307081439
364.0089289448326 248.73366674093245 183.811353385199
363.9663903328383 246.3341577033122 186.63330340109525
364.1550282758853 244.3973603277267 189.68541870309133
364.7744734022602 242.54124052428045 192.3877748755044
[...]
POINT_DATA 550
SCALARS Labels double 1
LOOKUP_TABLE default
101.0 101.0 101.0 101.0 101.0 101.0 101.0 101.0 101.0 101.0 101.0 101.0 101.0 101.0 101.0 101.0 101.0 101.0 101.0 101.0 101.0 101.0 101.0 101.0 101.0 101.0 101.0 101.0 101.0 101.0 101.0 101.0 101.0 101.0 101.0 101.0 101.0 101.0 101.0 101.0 101.0 101.0 101.0 101.0 101.0 101.0 101.0 101.0 101.0 101.0 101.0 101.0 101.0 101.0 101.0 101.0 101.0 101.0 101.0 101.0 101.0 101.0 101.0 101.0 101.0 101.0 101.0 101.0 101.0 101.0 101.0 101.0 101.0 101.0 101.0 101.0 101.0 101.0 101.0 101.0 101.0 101.0 101.0 101.0 101.0 101.0 101.0 101.0 101.0 101.0 101.0 101.0 101.0 101.0 101.0 101.0 101.0 101.0 101.0 101.0 101.0 101.0 101.0 101.0 101.0 101.0 101.0 101.0 101.0 101.0 101.0 101.0 101.0 101.0 101.0 101.0 101.0 101.0 101.0 101.0 101.0 101.0 101.0 101.0 101.0 101.0 101.0 101.0 101.0 101.0 101.0 101.0 101.0 101.0 101.0 101.0 101.0 101.0 101.0 101.0 101.0 101.0 101.0 101.0 101.0 101.0 101.0 101.0 101.0 101.0 101.0 101.0 101.0 101.0 101.0 101.0 101.0 101.0 101.0 101.0 101.0 101.0 101.0 101.0 101.0 101.0 101.0 101.0 101.0 101.0 101.0 101.0 101.0 101.0 101.0 101.0 101.0 101.0 101.0 101.0 101.0 101.0 101.0 101.0 101.0 101.0 101.0 101.0 101.0 101.0 101.0 101.0 101.0 101.0 101.0 101.0 101.0 101.0 101.0 101.0 101.0 101.0 101.0 101.0 101.0 101.0 101.0 101.0 101.0 101.0 101.0 101.0 101.0 101.0 101.0 101.0 101.0 101.0 101.0 101.0 101.0 101.0 101.0 101.0 101.0 101.0 101.0 101.0 101.0 101.0 101.0 101.0 101.0 101.0 101.0 101.0 101.0 101.0 101.0 101.0 101.0 101.0 101.0 101.0 101.0 101.0 101.0 101.0 101.0 101.0 101.0 101.0 101.0 101.0 101.0 101.0 101.0 101.0 101.0 101.0 101.0 101.0 101.0 101.0 101.0 101.0 101.0 101.0 101.0 101.0 101.0 101.0 101.0 101.0 101.0 101.0 101.0 101.0 101.0 101.0 101.0 101.0 101.0 101.0 101.0 101.0 101.0 101.0 101.0 101.0 101.0 101.0 101.0 101.0 101.0 101.0 101.0 101.0 101.0 101.0 101.0 101.0 101.0 101.0 101.0 101.0 101.0 101.0 101.0 101.0 101.0 101.0 101.0 101.0 101.0 101.0 101.0 101.0 101.0 101.0 101.0 101.0 101.0 101.0 101.0 101.0 101.0 101.0 101.0 101.0 101.0 101.0 101.0 101.0 101.0 101.0 101.0 101.0 101.0 101.0 101.0 101.0 101.0 101.0 101.0 101.0 101.0 101.0 101.0 101.0 101.0 101.0 101.0 101.0 101.0 101.0 101.0 101.0 101.0 101.0 101.0 101.0 101.0 101.0 101.0 101.0 101.0 101.0 101.0 101.0 101.0 101.0 101.0 101.0 101.0 101.0 101.0 101.0 101.0 101.0 101.0 101.0 101.0 101.0 101.0 101.0 101.0 101.0 101.0 101.0 101.0 101.0 101.0 101.0 101.0 101.0 101.0 101.0 101.0 101.0 101.0 101.0 101.0 101.0 101.0 101.0 101.0 101.0 101.0 101.0 101.0 101.0 101.0 101.0 101.0 101.0 101.0 101.0 101.0 101.0 101.0 101.0 101.0 101.0 101.0 101.0 101.0 101.0 101.0 101.0 101.0 101.0 101.0 101.0 101.0 101.0 101.0 101.0 101.0 101.0 101.0 101.0 101.0 101.0 101.0 101.0 101.0 101.0 101.0 101.0 101.0 101.0 101.0 101.0 101.0 101.0 101.0 101.0 101.0 101.0 101.0 101.0 101.0 101.0 101.0 101.0 101.0 101.0 101.0 101.0 101.0 101.0 101.0 101.0 101.0 101.0 101.0 101.0 101.0 101.0 101.0 101.0 101.0 101.0 101.0 101.0 101.0 101.0 101.0 101.0 101.0 101.0 101.0 101.0 101.0 101.0 101.0 101.0 101.0 101.0 101.0 101.0 101.0 101.0 101.0 101.0 101.0 101.0 101.0 101.0 101.0 101.0 101.0 101.0 101.0 101.0 101.0 101.0 101.0 101.0 101.0 101.0 101.0 101.0 101.0 101.0 101.0 101.0 101.0 101.0 101.0 101.0 101.0 101.0 101.0 101.0 101.0 101.0 101.0 101.0 101.0 101.0 101.0 101.0 101.0 101.0 101.0 101.0 101.0 101.0