# vtk DataFile Version 2.0
Really cool data
ASCII
DATASET POLYDATA
POINTS 540 float
338.0 226.0 80.0
335.2401258304512 228.10222161365664 80.85385546031502
335.77825786211366 228.9969710525304 84.65326353393299
337.40417693260633 229.00022101036538 88.73890266420445
338.0002217418041 228.4041768900448 93.26109800469925
338.00000055670785 226.77807984420812 97.34950845971538
338.00047028651244 225.55597367438847 101.84215815248119
337.3700000000001 225.0000000000001 106.3700000000001
336.2082129469239 225.300934423559 110.6215638885926
335.9999921189663 226.96894504697585 114.45961624309261
335.82211980474153 228.67389613633472 118.28912779843172
335.94628441502846 231.3187711407441 119.59407443260609
338.4688383317075 233.84546383991488 120.25712872769242
338.9997986828869 236.37267408245458 122.91329037066187
338.8500000000001 238.63 126.22000000000017
336.4387098184671 239.87430587927008 128.27719760655341
335.76189399832225 243.26953202816225 129.9209592646345
334.9994696644885 247.13495079281003 131.00737618493292
335.000143135754 252.8569943686035 131.00000596230947
335.52203037255856 257.9791610875795 131.07023761198928
336.9320547134741 261.36391488315627 131.9905273849149
338.6300000000002 264.3700000000002 133.00000000000006
341.0686674109287 267.55018222061494 133.09543789709414
343.223448586285 269.7415981575776 134.46858924791132
346.7183165384053 270.0000407325912 136.42777038816942
348.2312081242969 270.0000000000004 137.79340093119242
348.308162559164 270.0000000000001 137.88916887717522
348.4295888879374 270.0000000000002 138.05147048227562
348.5615922852658 270.0000000000001 138.2498004036781
348.67083940691924 270.0000000000002 138.454072570495
348.7438194381332 270.0000000000003 138.64900288799092
348.79166833939564 270.0000000000002 138.8377116219892
348.8270627753875 270.0000000000002 139.0244695204838
348.862562661947 270.00000000000017 139.21353854392189
348.9037229843402 270.00000000000034 139.40865339991137
348.9452410854453 270.0000000000002 139.61273155416023
348.9808803173979 270.0000000000002 139.82862017199807
349.0044338668414 270.00000000000017 140.0591365842465
349.01330489585405 270.00000000000017 140.3034881462919
349.0119076758313 270.0000000000002 140.55387110420378
349.005462009877 270.0000000000002 140.80167617234332
348.9991825750261 270.0000000000003 141.0383148831892
348.99654631083223 270.0000000000002 141.26225611123584
348.9967703932888 270.0000000000002 141.4892685870684
348.99843123973085 270.0000000000002 141.73772330602714
349.00010545056784 270.0000000000002 142.02598323435367
349.00077110727676 270.0000000000002 142.35480352574197
349.00065906604857 270.00000000000017 142.66999621429332
349.0002438544382 270.0000000000002 142.9066866042865
349.0 270.0 143.0
354.54066853741085 275.4164919074737 140.1981601112844
356.45044416665775 277.70080756949847 144.1802266506398
358.26255068955265 279.73736797722387 148.49018981265013
360.04826234243023 282.5423795900572 152.06248277543457
361.8122852314963 285.4342184027422 155.57915756389175
363.00040664365775 289.6169224854878 158.36221798720138
364.0073861471522 294.0812332663887 161.05341964879062
363.9999638176658 299.5699205485829 163.73623697293792
364.72943887167816 304.25814909315864 166.4887176170043
367.2480034119 308.8480817752112 167.535201740973
370.13010355744586 313.5553752531529 168.1103605692027
373.97880551061354 316.98039508191744 168.9999848839148
380.1235007369383 318.998280831648 169.00069358383917
386.56289189401855 318.27379326867003 169.99661581177935
392.4353246686318 317.00022455013334 171.0138525709545
399.0968390965058 317.5175498546359 171.99785595566675
403.10858323917125 320.6875485635851 172.97937840965224
406.9767284497465 324.6072552667335 173.35491004300107
408.99849919974696 329.2334318729503 174.87011221183747
408.7944096085624 335.7205456995033 176.33849802477857
405.5418061099333 338.9597409576424 178.01061245680478
401.44592911514144 341.75529735278616 179.28246863155397
397.59885204565353 343.80074253851353 181.5620700925054
393.2636450774412 344.83375287536705 184.34824592040837
390.3449586602071 346.87125099859975 187.5657155118422
388.2883931958265 348.01022339738915 192.52306790806944
386.5221415340878 348.0000002375207 198.9303044324974
385.0033974945577 347.99696635903086 205.57188245723847
383.9939314104916 347.00238566228904 211.73119105361462
383.9999999437445 345.9963545791089 218.89431370830687
384.00000167250755 344.99982132168003 226.0610441389702
384.427217153294 343.9695814512192 232.7668540935571
385.7215419671917 343.0008527484175 238.66704707958232
386.95231749584764 341.92319035798346 244.5207919529138
388.09342853130596 340.4431779893854 250.06404139509297
389.9508914256348 339.0165632421386 254.94509759541097
392.54791272907767 337.14274036398245 258.6457020224337
395.8693064204715 335.0913811764732 261.4261549647709
399.1861997261055 334.0002213068889 265.18136851951283
403.82692564957404 334.0000000052719 268.7036866005959
407.6135264621433 334.00000000000017 273.0803510888779
411.70519587378465 334.0000000000728 277.15194698343953
416.2315790984612 333.9999994737818 280.78882848030315
421.10186553631496 333.5833564109679 283.6680795982996
426.64194815658055 333.00001867578544 285.70500882795875
432.5047807439928 332.7439818598819 287.74940519751107
438.71879534518575 332.00088932196047 288.9555633646486
444.738745349828 331.99382488951505 291.09181742967365
449.22 332.0 294.78
450.94523714488463 328.19266662049233 291.66392893599385
452.16074096235747 327.8812735407401 292.57738156120143
453.14015909739175 327.2996683863397 293.44818415390375
454.3258340023204 326.8953320985605 294.27451559961247
455.4233158738087 326.15586094439436 294.8751829903071
456.4750995907751 325.1585000489514 295.2548084560143
457.15000000000026 324.37000000000006 296.2200000000001
457.96900655317313 323.9863402730515 297.4459814941373
458.8171600058393 323.8777576066117 298.91855854535595
459.4335441642659 323.3017862519232 300.15840805157575
460.27287851531077 322.99344133260064 301.4341220307751
460.89039664048795 323.00014208108007 303.2526183217105
461.5156426680856 323.0000132535366 305.05580062496887
462.0000000000004 323.0000000000002 307.0000000000003
462.484420225164 322.9999999783776 308.9441511793932
463.1102786886591 322.9999999993082 310.74686416774574
463.6924486836133 323.00000001254244 312.5932656146469
464.3083646134048 323.00000028890435 314.4059213897859
464.87783085791045 322.9999957556159 316.265022040563
464.99741530946017 322.99978219282684 318.57379545479586
465.0000000000005 323.0000000000001 321.00000000000017
465.0000042118608 322.7616791342921 323.1902463510038
465.0000000820817 322.1786865106526 325.03582928572456
464.99999999417344 322.00291329805077 327.2886275891116
464.9999999942082 322.0001261871546 329.71441189613216
465.00000008154524 321.999997266395 332.14285449078676
465.00000418433365 321.9999997450053 334.57143250076655
465.0000000000004 322.00000000000006 337.0000000000005
464.99743220206267 322.00000000041575 339.4260036310495
464.8780119506484 322.00000000000966 341.7351548077977
464.30000511166423 321.9999999999352 343.58571939745156
463.89799413291047 321.99999999851093 345.61227984890303
463.33837982284655 322.00000002187903 347.48123694062366
462.71764092890714 322.0000011227471 349.2890682133164
462.00000000000074 322.0000000000001 351.0000000000006
461.04363181410605 321.9993110042532 352.4729930472712
459.83827748293476 321.9926138008268 353.70388723419626
458.89894876062965 322.44326080488486 354.68428548470865
457.9570612272501 322.97202072352286 354.52333549336504
459.13087611907616 323.0005461237227 359.45864980616415
459.5190110226509 323.000861213916 361.0948937540087
460.3700000000007 323.0000000000003 362.63000000000056
461.1592243840422 322.5196693372485 363.7889485698299
462.1551664008544 322.0192816388985 364.7212567887347
462.9316018657345 321.55642947294524 365.91054128962253
463.64931784143926 321.0388170416702 367.10376891321175
464.68411965322105 320.5933512970641 368.0523239251258
465.53006674606377 320.0475144289874 369.10094275247803
466.0 320.0 371.0
451.01097120700746 332.2339426695759 299.16283171518774
450.41647599968843 332.99150423395963 304.24130034006123
449.3210023808545 334.42461714824407 308.12441539034876
447.70813399989703 334.99983746887455 312.34094479656346
446.35997468253277 334.9999999840347 317.4007888553022
446.0506276719951 334.99928609711003 323.3989506362702
446.9993194328402 335.8213135418641 328.036509870731
447.68745646554146 335.9995502786462 333.57829937826585
449.00749123534797 336.78638181210374 337.8795963403035
449.3904889837034 338.0108813943128 342.6802622754988
449.9997922625277 339.741096320536 346.748915131206
449.9999999849415 340.0057143283352 352.9036521404991
449.9999999997499 338.79062032300345 358.0967478960554
449.99999892179983 337.9888622565394 363.72448168731603
450.002588505212 339.66811088018227 368.45721339810063
448.98973928591744 341.56809993850123 371.9525561064992
449.0002664524089 344.1896317410217 375.74940174503524
448.04826877764685 347.46922280350407 377.9256193663986
446.898748261923 349.29103847743664 381.3539532053527
445.81564100180896 351.67732772059986 384.3016078429692
443.77821991268416 352.83191561297406 387.5177880342122
442.0077298395428 354.36487299477915 390.62244535475344
439.52379605193335 355.72133775226644 393.1947061362868
436.70262353981167 356.5782677785117 395.9208162548251
433.67159907621544 357.6793923010865 398.19628163314565
430.86645887909214 358.47758522278104 400.9559535103118
434.0078816893755 356.9999238431167 408.01293452453785
436.7426637975489 357.00257114548606 411.68344412164276
436.67833623732787 357.98608207675727 416.5290328116611
434.08267846910354 357.5618645426352 419.9005283016638
432.99888080899626 358.008119487304 423.6443837615255
431.3463504872585 358.00002289137257 428.40755205956833
429.0098292369739 358.4911264475184 431.9880842329929
426.88453301563953 359.82716840831466 434.93608672863706
[...]
POINT_DATA 540
SCALARS Labels int 1
LOOKUP_TABLE default
121 121 121 121 121 121 121 121 121 121 121 121 121 121 121 121 121 121 121 121 121 121 121 121 121 121 121 121 121 121 121 121 121 121 121 121 121 121 121 121 121 121 121 121 121 121 121 121 121 121 8 8 8 8 8 8 8 8 8 8 8 8 8 8 8 8 8 8 8 8 8 8 8 8 8 8 8 8 8 8 8 8 8 8 8 8 8 8 8 8 8 8 8 8 8 8 8 8 8 81 81 81 81 81 81 81 81 81 81 81 81 81 81 81 81 81 81 81 81 81 81 81 81 81 81 81 81 81 81 81 81 81 81 81 81 81 81 81 81 81 81 81 81 81 81 81 81 81 82 82 82 82 82 82 82 82 82 82 82 82 82 82 82 82 82 82 82 82 82 82 82 82 82 82 82 82 82 82 82 82 82 82 82 82 82 82 82 82 82 82 82 82 82 82 82 82 82 122 122 122 122 122 122 122 122 122 122 122 122 122 122 122 122 122 122 122 122 122 122 122 122 122 122 122 122 122 122 122 122 122 122 122 122 122 122 122 122 122 122 122 122 122 122 122 122 122 2 2 2 2 2 2 2 2 2 2 2 2 2 2 2 2 2 2 2 2 2 2 2 2 2 2 2 2 2 2 2 2 2 2 2 2 2 2 2 2 2 2 2 2 2 2 2 2 2 21 21 21 21 21 21 21 21 21 21 21 21 21 21 21 21 21 21 21 21 21 21 21 21 21 21 21 21 21 21 21 21 21 21 21 21 21 21 21 21 21 21 21 21 21 21 21 21 21 22 22 22 22 22 22 22 22 22 22 22 22 22 22 22 22 22 22 22 22 22 22 22 22 22 22 22 22 22 22 22 22 22 22 22 22 22 22 22 22 22 22 22 22 22 22 22 22 22 124 124 124 124 124 124 124 124 124 124 124 124 124 124 124 124 124 124 124 124 124 124 124 124 124 124 124 124 124 124 124 124 124 124 124 124 124 124 124 124 124 124 124 124 124 124 124 124 124 1 1 1 1 1 1 1 1 1 1 1 1 1 1 1 1 1 1 1 1 1 1 1 1 1 1 1 1 1 1 1 1 1 1 1 1 1 1 1 1 1 1 1 1 1 1 1 1 1 0 0 0 0 0 0 0 0 0 0 0 0 0 0 0 0 0 0 0 0 0 0 0 0 0 0 0 0 0 0 0 0 0 0 0 0 0 0 0 0 0 0 0 0 0 0 0 0 0