# vtk DataFile Version 2.0
Really cool data
ASCII
DATASET POLYDATA
POINTS 541 float
286.0 216.0 47.0
286.9967113371226 216.87009457212193 43.683181041017
290.1459316747306 217.2835638507437 42.505074982829875
292.262354222879 216.0477010690939 46.33636724611917
293.7854655088862 214.9937109777144 50.942939346379795
294.9944403674127 213.81625991001076 55.74018688953681
297.6617051940825 211.9594691566738 58.399804778917854
299.7086115417131 211.00023895919276 62.57734170319398
300.98954008133313 210.50813783661832 67.98798551055503
303.0519214673579 210.00001652413096 72.60115440455759
305.3341940997882 209.41931793280799 76.92022708441348
305.99963326744125 207.14583119641617 81.16666391230967
307.67155443710044 208.51938356315662 85.01313712870333
309.1839611688975 210.13292988297488 89.0652980336776
310.50763609351804 211.95138552617448 93.11239946730852
312.5661646484401 212.9770072125897 97.21193018296646
313.83778672883733 212.99740283532046 103.10357591914972
313.6016552436133 214.99943908278837 107.72457749770263
311.29812340966237 216.48976817772908 111.11445219486384
309.98921630196537 219.42653298825286 114.05247923453797
310.00000104331355 222.60162180262415 118.07184862844458
309.99802106985976 225.71864780658112 122.13651612042146
309.0014710611087 228.80065687237305 125.2416305152639
308.0026258061887 231.0836772110651 129.1434385346174
307.99999969684836 233.76857932446825 133.63694984719297
307.9998334733264 235.78598760204252 136.62670022284198
308.0022367550823 236.66120115128626 138.44289172229324
307.67612610299585 237.59211213850642 139.91909601636112
306.19006463689976 238.0094733594388 140.75221759675222
304.3544477366589 237.9979394666096 141.65892695677968
303.3604417704884 237.84166403346234 143.24292024597244
302.9923889995831 237.08953258823587 144.85742553795785
302.74365893690936 236.19563984131523 146.44984597529262
302.11675472451736 235.27441558893082 147.64498457429215
302.986616921148 232.18965865751585 148.15607114977337
303.09986512306244 231.9899737596098 150.61318662426498
303.7241575465383 232.00032900515333 152.72486253719313
304.4314684235592 231.9999950542145 154.75220443717635
305.7367579745913 231.99999993214072 156.1816093647126
306.8750871714247 232.00000008576913 157.77797397428705
307.9413948193675 231.99999679531362 159.44636348716674
309.44496984855266 232.00004885922948 160.6774302718121
311.13650817250283 232.00194184126332 161.71869284337578
312.46682930300653 232.2770435875074 162.84796384429993
313.45857825253466 233.13091203070235 163.7370403249164
314.3892753506546 234.02327211731009 164.64867705612693
315.09254637259824 235.11838133822272 165.58499432781377
315.7427211689003 236.5143007772827 166.2733644958332
316.43103329600865 237.7318482295853 167.10889240753124
317.37 238.63 168.0
320.4744192220253 234.88938544819774 169.68718851506597
321.0127919169576 235.05334593969854 170.01043394133748
321.7185044682902 234.99013279430707 170.4156935973024
322.31210757974856 235.18602732676095 170.6645105182871
322.87374413835806 235.4381741950114 170.89235343162923
323.3516159692655 235.8890172526919 171.00421177278878
323.9126881356626 236.34783524787971 171.0251928240506
324.39026213241493 236.71892530022558 171.21739891568362
324.9864266904357 236.91605006756976 171.46462003478442
325.6704296189268 237.01293196143575 171.72583068640117
326.5170185967754 236.9939761654928 171.93384327954192
327.48624089578317 237.0119537697308 172.00799606396077
328.47968388743584 236.93403453867109 172.00818496065696
329.2344151459593 236.73915240532762 171.93074530633834
329.7258538016083 236.40325469855918 171.72009355199154
329.99162334834585 235.85334564137713 171.4636050699107
329.8808880245548 235.1657850881223 171.1971584053837
329.8093147121185 234.6977163031522 171.01996932484786
328.9530188531442 234.035272621057 170.35578331112023
332.38204968266166 235.7133515716623 173.4683604644915
333.6381685618695 236.05574596830095 174.40692708128788
334.1475471873772 235.98971963329134 174.71574846833377
334.6151732296485 236.00157593727386 175.32892162213213
334.84465241146273 235.99986887206674 176.1344893589495
335.15539320559134 235.9999740900979 176.86489576867496
335.3843526109411 235.9999378612735 177.677039991158
335.65523661826546 236.00055659419556 178.44621947367105
335.87865821535246 235.99692983331644 179.2671936308278
336.0047022776083 236.01610146531507 180.163314140792
336.0180762867822 236.1953735212446 181.00883657200086
336.20416397736545 236.43798942505586 181.6137331904159
336.4503088529744 236.7025526658286 182.158083560853
336.7042439852509 236.91722507977923 182.7326436235303
336.96467492923176 237.00525448390394 183.41787213275288
337.24892134077726 237.03393002942548 184.13993228481144
337.4918052918199 237.3069989878218 184.6693735927009
337.73782334946117 237.76570337125463 185.01511708581387
338.01818771228017 238.26299754865505 185.26167581238334
338.27489470163647 238.71714863592928 185.59535753238092
338.60247056047854 238.96971326081427 186.06147035565436
339.1632479803616 239.00829516194722 186.5013779360331
339.83395880585266 238.98789305749335 186.89367313716164
340.356650323309 239.10301958831533 187.28694503955208
340.88966760326224 239.32067319313404 187.58215990227623
341.43986248335506 239.58864497550135 187.81873896910616
342.0689546539406 239.82544084389724 187.9823617851427
342.7904264189675 239.99376664303892 188.13905254419421
343.5956678643707 240.0007362173717 188.35262458529152
344.22 240.0 188.78
340.0008524882847 246.2707723026473 190.9939719658347
340.5073474079963 250.00751880104283 193.01571556639126
341.80867294789715 250.88822744410746 196.87793923980732
342.38402596548224 249.34976812218213 201.02740781090156
344.75187153292626 246.41779501988293 201.99328646732874
345.9975838672086 242.41386972119605 203.00840456397333
346.0073759105509 236.95848554167466 203.82270549937388
344.8264733370225 233.92971242085588 205.87856355531355
342.59237350193587 232.02594727881848 208.0097874953576
345.05941645100825 227.98229524451992 210.59779839078647
346.83460697541875 228.0047490014239 215.08835922783555
348.6831902593835 226.98546868778791 218.48593182453763
349.00025309816334 224.09946235382742 221.5481676509732
349.5567391618891 220.61236010792695 223.77917556465255
349.99999267072604 216.16708624872803 225.1466851972208
350.0000000195056 212.19306408237378 227.43796202263127
350.00000000000745 207.5632748671765 229.07347894880203
350.00000000000006 203.31162392537954 231.08713412946116
350.0000000000003 199.34528487776686 233.3861012042976
350.00000000103245 196.04022649821871 236.34634894820476
350.00000448478596 192.19877249147635 238.77020543552564
350.0086726649399 187.30225422116277 240.14744467524815
347.96314620243635 184.99440232751175 239.94196185726818
345.98835302506416 186.13609812734586 236.7817734063102
345.22607616269875 188.28096867537138 233.42223793876462
344.1760129690358 190.60659166055277 230.52283547529328
342.3361206600255 191.00005893234993 226.5006355801762
340.99803284264647 190.7590935080008 221.8143022623987
339.44158330528927 188.9353224090389 218.9292167346613
339.00001481905184 186.24093525349457 215.79986625398465
339.00002612525134 182.65355287265538 213.12193120617576
338.7484908863671 179.2588823153192 210.50283087994683
337.6882038328739 178.0046226335939 206.55207149271624
336.3634500377725 177.00034823585042 202.61579356311435
333.89690736583907 176.55501909351506 199.26235935490266
330.6518909805738 174.79793807190748 197.99961128824148
329.6980543540516 171.863351362014 197.01608690397182
332.25739404576643 168.34213143407533 196.83381353328178
333.915641418062 165.50508194902335 195.0639586249757
334.51753636459705 162.1459140907703 192.75937748428532
336.9539458771485 160.40866191117956 190.66775080682345
337.82102652346134 157.7208629929009 188.31629211075008
335.8486276957289 155.51322297954738 186.2299866533428
332.6783334548668 155.00014208876814 183.64805506853662
329.25079255843616 155.000285614665 180.81014612333433
328.0005031978612 153.6745736974398 177.12324915299564
328.92624356246273 150.1941656990174 175.25695068923977
330.10732815468754 146.65240027111872 173.7295246634048
334.0 146.0 172.0
346.1748897932187 240.0506848834488 191.2172156667488
347.6078956709555 240.99194572526469 193.29813514079683
348.7490018407478 241.00155794751427 196.5963106100255
349.98445805211776 241.90203058736031 198.91154844683302
350.711451276313 242.99804708968722 201.5353933702717
352.2699360553918 242.98888648282826 204.43508047734085
353.6747184428541 243.87879708279297 206.59892829611817
354.94381562836065 244.52422002490374 209.12382225226972
356.23749343729196 245.00018378656955 211.8031391354935
357.7303341474092 245.00005731312388 214.7595110881031
358.8378706208336 245.0036268590491 218.10453174379754
358.999778555121 243.8482144757015 221.2361910226821
358.9999996446065 242.6667580822244 224.50349313149604
359.00000000147986 241.5299553340867 227.81566961828713
358.9999999945958 239.47247654315964 230.20717041529784
359.00000150428343 237.4323585808106 232.61603355448167
359.00082177387253 235.76668866818727 235.40016350328406
358.609510542975 234.12845906480354 237.81960226083945
358.00274943037664 232.55674373032588 240.0901054056002
358.0000005614693 231.0096609391673 242.98925333737134
357.9998153621696 228.8298309510445 245.2582177417855
357.87403630797655 226.83014930215003 247.5817366305353
356.9887656008567 225.26296568771053 249.57826190038676
357.0097735082723 223.7014935493808 252.48677715408553
356.1069010674144 222.12177607977583 254.4532072603257
355.7076918492004 220.44278330150811 256.8189069911307
355.0043540908088 219.15543078934087 259.2820986928697
354.23833299802106 216.7636342511082 260.57454057234287
354.0000528345002 215.3655679614966 263.38602786611466
353.75267452060143 213.78502095921678 266.00147950414714
352.8644408082777 212.16537677989876 267.94819911414
351.9885699756883 211.24219959173178 270.5981163707547
[...]
POINT_DATA 541
SCALARS Labels int 1
LOOKUP_TABLE default
121 121 121 121 121 121 121 121 121 121 121 121 121 121 121 121 121 121 121 121 121 121 121 121 121 121 121 121 121 121 121 121 121 121 121 121 121 121 121 121 121 121 121 121 121 121 121 121 121 121 122 122 122 122 122 122 122 122 122 122 122 122 122 122 122 122 122 122 122 122 122 122 122 122 122 122 122 122 122 122 122 122 122 122 122 122 122 122 122 122 122 122 122 122 122 122 122 122 122 1 1 1 1 1 1 1 1 1 1 1 1 1 1 1 1 1 1 1 1 1 1 1 1 1 1 1 1 1 1 1 1 1 1 1 1 1 1 1 1 1 1 1 1 1 1 1 1 1 2 2 2 2 2 2 2 2 2 2 2 2 2 2 2 2 2 2 2 2 2 2 2 2 2 2 2 2 2 2 2 2 2 2 2 2 2 2 2 2 2 2 2 2 2 2 2 2 2 21 21 21 21 21 21 21 21 21 21 21 21 21 21 21 21 21 21 21 21 21 21 21 21 21 21 21 21 21 21 21 21 21 21 21 21 21 21 21 21 21 21 21 21 21 21 21 21 21 22 22 22 22 22 22 22 22 22 22 22 22 22 22 22 22 22 22 22 22 22 22 22 22 22 22 22 22 22 22 22 22 22 22 22 22 22 22 22 22 22 22 22 22 22 22 22 22 22 123 123 123 123 123 123 123 123 123 123 123 123 123 123 123 123 123 123 123 123 123 123 123 123 123 123 123 123 123 123 123 123 123 123 123 123 123 123 123 123 123 123 123 123 123 123 123 123 123 8 8 8 8 8 8 8 8 8 8 8 8 8 8 8 8 8 8 8 8 8 8 8 8 8 8 8 8 8 8 8 8 8 8 8 8 8 8 8 8 8 8 8 8 8 8 8 8 8 81 81 81 81 81 81 81 81 81 81 81 81 81 81 81 81 81 81 81 81 81 81 81 81 81 81 81 81 81 81 81 81 81 81 81 81 81 81 81 81 81 81 81 81 81 81 81 81 81 81 82 82 82 82 82 82 82 82 82 82 82 82 82 82 82 82 82 82 82 82 82 82 82 82 82 82 82 82 82 82 82 82 82 82 82 82 82 82 82 82 82 82 82 82 82 82 82 82 82 0 0 0 0 0 0 0 0 0 0 0 0 0 0 0 0 0 0 0 0 0 0 0 0 0 0 0 0 0 0 0 0 0 0 0 0 0 0 0 0 0 0 0 0 0 0 0 0 0