# vtk DataFile Version 2.0
Really cool data
ASCII
DATASET POLYDATA
POINTS 540 float
310.0 206.0 22.0
310.2369572166922 206.71126102395178 22.4981056541608
310.5832326674207 207.31132609422463 22.916894514463895
310.8947708878928 207.67678249132175 23.661154687716795
310.9969709451894 208.04239445259762 24.5937040609291
311.1583142768189 208.37951233645617 25.49291315080323
311.4862233698826 208.7359907677696 26.233455512471945
311.8213292988838 208.98750662119662 27.049604600015165
312.0105839112047 208.99109035488323 28.263944263689208
311.997990960594 209.08837428429263 29.587052840193387
311.99991714920964 209.39039457623284 30.69133528888722
311.9998527099289 209.74680847335898 31.742730437593533
312.0004072981154 209.9862049168579 32.91216732313129
312.00704230925106 210.20883559704802 34.10433133095356
311.9047434473536 210.5603325778025 35.058696242765535
311.59906431121993 210.88469998911165 35.836813285129686
311.2479187714513 211.25972363077764 36.51880726554646
311.0035643772197 211.75225749068508 37.19008255979618
310.96709769797906 212.37504875102212 37.938992623973405
310.68819970973396 212.8052729412482 38.63800533095707
310.32937364113394 213.00518913768852 39.48733576010053
310.0589613584957 213.06668772478116 40.5650536551535
309.8536635061409 213.36532551783262 41.45793866619854
309.5288149106299 213.76249423863027 42.155423520879765
309.19195178898167 214.3049175612325 42.682880977168786
308.99529554216423 214.69517591536763 43.5046883098098
308.92497350861464 215.2367395033565 44.293430759821554
308.62484211419934 215.6343208342423 45.01124624454695
308.27903401193305 215.97836188500173 45.73685214902198
307.8958939296898 216.3332887723286 46.38973733765591
307.57057263471097 216.68395310908784 47.13528414074375
307.21731180541997 217.0480704240491 47.82603007981278
306.99172844989755 217.38424397056505 48.66881928097415
306.7558407680676 217.74306448318302 49.482076432404774
306.4006900660222 217.98339028972742 50.294855332499345
306.095059208447 218.2046881102778 51.17607307952469
305.99376609604803 218.55485189886062 52.13287974657612
306.0017055359297 218.87814714720326 53.225833445266744
305.93998113450925 219.26677387875034 54.17761970234973
305.6500289387816 219.60870084931855 54.95838628627026
305.2924334305277 219.90381111469296 55.72286621591418
305.02544740147613 220.1080743474953 56.65140072787109
305.0019679545776 220.41923095879008 57.725559475170925
304.9994385957088 221.0129209565812 58.5372321335388
304.99988494417926 221.75706322372568 59.20228411234038
304.99405995912304 222.65166743148623 59.722512366381224
305.09587658231567 223.67010443391686 60.00577580722556
305.35346417248763 224.6441137248433 60.16443547030052
305.7479654612062 225.17192316795757 60.898883775082766
304.0 224.63 62.37
306.1434200736987 228.83315170127167 61.00033601681121
306.9838908248458 230.35508339901844 61.620415495886625
307.8371925772275 231.74449581635048 62.35711267767542
308.13346930254306 233.42999725803713 63.34504078958244
308.82958789893183 234.73718324181172 64.33112041429519
308.99930614777804 236.17002200100782 65.7082244639028
309.0000165821714 237.3144835607815 67.54264267782561
308.99995766676733 238.6953965488556 69.14138047906607
309.00235438620473 240.13346796324774 70.68050418118074
309.3200813383585 241.67123862707766 71.80459839979288
310.0851649172358 243.12883929048354 72.56150611233164
310.9062721793237 244.2765233089901 73.57230026387167
312.1009448387645 245.52916364450533 74.10492367967369
312.9733648388619 246.95227116112002 74.79180461047451
313.28949538193234 249.4069753149667 74.99731471700473
314.8057164237716 250.78128607962057 75.08814739365977
316.05719172534214 251.83454967949945 75.76761871858734
316.8432926605366 253.25297016395547 76.53602712138736
318.2816153181678 254.03505081484448 77.2874781491532
319.7974887284356 254.84344045104638 77.95542138099226
321.5530863816521 256.0288931659888 77.98937304330619
323.10571553424245 256.93183601021394 78.51343119485259
324.79690779394844 257.69709874089347 79.03861132431847
327.7158790466426 255.99440367099922 80.65785551564115
328.9102956989961 254.77390963665957 85.23119518261821
333.2791866609674 253.00364599965224 89.82645122304814
337.9414278015022 251.9999786262684 94.8952915143964
342.8085074080746 252.94105610848885 99.8282768163899
347.4930136375076 253.99947917879393 104.81362966535384
351.79676451209804 254.9999507782289 110.2441010361814
355.89356338629807 254.99992587935725 116.88187269751307
359.2666186261856 253.99902774482837 123.24261320027553
359.99999898085304 253.30973882501942 132.55463780335023
360.00000000000114 250.22884752400918 140.2084393607449
359.9999849826009 246.1072447928641 146.82151548975054
358.9888116764536 242.0352977182916 152.47308898658167
359.0000001124721 236.915351593535 158.09902517564237
358.6500374349514 230.39865204469342 161.9672086523822
357.99694973527863 223.21412309775107 164.86413415178578
356.99994096207604 216.32564885613044 167.71334492024678
356.9999999312109 208.54540039112712 170.66784944775316
357.3351903706429 202.06936495905455 174.58992436454932
359.07142453691336 196.94864598350404 178.46897486134964
361.905556464257 193.07594552457107 182.49659154838727
364.38550084503265 190.99174639406027 188.66747003792383
366.1106943033317 188.69824449981922 195.37457916874516
367.0008512097001 185.49281252889318 202.024268501824
364.77094090484957 184.00000594458155 209.03625314374474
360.78 183.0 214.78
363.4267415757987 188.90279638236498 215.8807499825622
364.0107174642204 191.3134692260368 216.00080114555468
364.0103323793166 194.4974326463701 216.00280661534978
363.4601963057648 196.8198755258533 216.28802591018763
362.88232481818454 198.72413004815513 216.97511434639407
362.0082079429224 200.36254959399818 217.62529674783698
360.9427943099345 201.68373217066426 218.4020540028586
360.0926616956156 202.73043819750615 219.67283821074352
360.2456128929466 203.72630325380405 221.4958257024413
361.04212642845664 204.53600630121392 223.05454449815042
361.79984081894634 205.3279953211753 224.66808194512075
362.6194137953158 206.35445686507805 225.9853134356059
363.1727716747462 207.6760865207272 227.27367354724996
363.9049407919909 208.7248546702236 228.66440503199885
363.9908588560108 209.97408911438345 230.48393576856625
364.5297917416795 211.03228625396207 232.05016835678947
365.005258525178 211.91417448507858 233.85607717769915
364.99627832813115 213.1921278858502 235.75036929731004
365.65497570606624 214.17709148532373 237.26997373734224
365.9971565767792 215.10639127145944 239.16174150955587
366.00074737499676 216.15925148984726 241.2699505918828
365.92631656614446 217.48342152034138 243.0347336193716
365.19965957061925 218.32010460680274 244.63465653185744
364.9991706332571 219.33889550600097 246.57865337491862
364.60948530659203 220.65292268347986 248.03893775298138
363.9953391926856 221.4522028969206 249.78836115363626
363.525282576451 222.7844688396857 251.1489699832976
362.91993923876964 224.03140202245706 252.45996589890595
362.21459030221223 225.2824859718864 253.66679832270873
361.3947137163607 226.331020430454 254.96164920866988
360.6157556712363 227.81126358447645 255.86558244624783
359.9695306794291 229.08058158281852 257.1098985331855
359.27883359413414 230.43812440379807 258.22812423146786
359.00265587506186 232.02168851255394 259.53200400765195
359.0002060669602 233.5289495880098 261.1850086986628
358.9924441753809 234.477243009091 263.4095580671789
359.6176770266909 236.16941454197575 263.9547979774398
358.99568104431984 233.98528213975746 270.2255108974965
359.00010215966086 234.00033658030202 273.3668283868082
358.99999930884417 234.00078468725587 276.53141060879875
358.99994389864406 233.9084532173778 279.6023867310072
359.00194085570666 233.17867630396597 282.03387717688537
359.3746984843648 232.99980262781426 284.6455010000572
360.4264752114989 232.813026155616 286.56040617836277
361.2321027392174 232.0819743186505 288.1955491947
361.9428143948488 231.75485397560556 290.3222649939342
362.0005419651261 230.39635085111271 292.06933989857157
361.9999950510835 228.84881486742086 293.6832405347538
362.0 228.0 296.0
358.54797651020874 182.1767148438868 216.27530861751515
356.3060255175204 180.59025133898524 216.99850210026722
354.223712087599 178.20622327918176 217.08425895027136
352.9197182434654 175.88772151288984 218.0105296136816
351.6933644169084 173.1209065998177 218.5667419225561
349.88016236638066 171.25555631768023 219.44184836744057
348.2809427199386 170.01163131430744 221.149797585246
346.7514146184332 170.04455873248716 224.110116759749
345.38191141130636 170.99687459149717 226.3442276035614
343.7973920452078 171.5027671869065 228.80354029375076
342.3510291396763 172.00026550500584 231.41195643972358
340.5224673062869 172.00000326572007 234.1347085488031
338.9381423871934 171.99999999585845 237.10140769795206
337.1032907700029 171.9999999999829 239.81757648430795
335.09068141190517 172.00000000000023 242.35598753435457
333.42162480577053 172.00000000002268 245.23795133652962
331.6235120852924 171.9999999842735 247.9908589218392
330.1667931707259 171.99999827640087 251.0851493135857
329.9899426924424 172.0026965356656 255.47685899996245
330.85414867115475 172.63647552177957 258.53973274312295
331.5196721753524 173.95306718761702 261.1004610930844
331.58895792072275 173.99998351336427 264.71037715338804
329.4892716629634 173.91210498068887 267.0748488653131
328.9992160640954 172.99165591916898 270.2125007616153
328.9901983421733 173.67946967767998 274.10570191032053
329.911567245797 175.22121702107611 276.19240165048836
330.3395895871944 176.82982102372972 278.70819122132116
331.47799850109817 177.73025841364318 281.2267262849226
332.0002523688997 178.00005463208507 284.9792818061629
332.75582666319144 178.24968764468989 288.52509791935256
333.649827210509 180.03157047900555 290.4002491477549
334.283740926029 181.53221423849618 292.81246614575196
335.0137552624131 183.0744932709915 295.09355826995534
[...]
POINT_DATA 540
SCALARS Labels int 1
LOOKUP_TABLE default
12 12 12 12 12 12 12 12 12 12 12 12 12 12 12 12 12 12 12 12 12 12 12 12 12 12 12 12 12 12 12 12 12 12 12 12 12 12 12 12 12 12 12 12 12 12 12 12 12 12 2 2 2 2 2 2 2 2 2 2 2 2 2 2 2 2 2 2 2 2 2 2 2 2 2 2 2 2 2 2 2 2 2 2 2 2 2 2 2 2 2 2 2 2 2 2 2 2 2 21 21 21 21 21 21 21 21 21 21 21 21 21 21 21 21 21 21 21 21 21 21 21 21 21 21 21 21 21 21 21 21 21 21 21 21 21 21 21 21 21 21 21 21 21 21 21 21 21 22 22 22 22 22 22 22 22 22 22 22 22 22 22 22 22 22 22 22 22 22 22 22 22 22 22 22 22 22 22 22 22 22 22 22 22 22 22 22 22 22 22 22 22 22 22 22 22 22 122 122 122 122 122 122 122 122 122 122 122 122 122 122 122 122 122 122 122 122 122 122 122 122 122 122 122 122 122 122 122 122 122 122 122 122 122 122 122 122 122 122 122 122 122 122 122 122 122 123 123 123 123 123 123 123 123 123 123 123 123 123 123 123 123 123 123 123 123 123 123 123 123 123 123 123 123 123 123 123 123 123 123 123 123 123 123 123 123 123 123 123 123 123 123 123 123 123 1 1 1 1 1 1 1 1 1 1 1 1 1 1 1 1 1 1 1 1 1 1 1 1 1 1 1 1 1 1 1 1 1 1 1 1 1 1 1 1 1 1 1 1 1 1 1 1 1 0 0 0 0 0 0 0 0 0 0 0 0 0 0 0 0 0 0 0 0 0 0 0 0 0 0 0 0 0 0 0 0 0 0 0 0 0 0 0 0 0 0 0 0 0 0 0 0 0 8 8 8 8 8 8 8 8 8 8 8 8 8 8 8 8 8 8 8 8 8 8 8 8 8 8 8 8 8 8 8 8 8 8 8 8 8 8 8 8 8 8 8 8 8 8 8 8 8 81 81 81 81 81 81 81 81 81 81 81 81 81 81 81 81 81 81 81 81 81 81 81 81 81 81 81 81 81 81 81 81 81 81 81 81 81 81 81 81 81 81 81 81 81 81 81 81 81 82 82 82 82 82 82 82 82 82 82 82 82 82 82 82 82 82 82 82 82 82 82 82 82 82 82 82 82 82 82 82 82 82 82 82 82 82 82 82 82 82 82 82 82 82 82 82 82 82