# vtk DataFile Version 2.0
Really cool data
ASCII
DATASET POLYDATA
POINTS 540 float
358.0 184.0 24.0
358.03527578943715 184.54662076890156 19.16372475739095
360.0485349276726 183.4595448158609 15.93596254198925
363.83296167730657 183.00000680323083 14.145830797400695
365.5482212773609 183.03260152996566 17.828028950696847
364.9192415968568 185.49333416633561 21.05853786472221
363.3805848674472 186.84185338251265 24.507973077574004
362.1017356956203 187.00045549766213 29.387937818416788
360.9142801734001 186.2274949904383 33.75725650112444
359.98028635381763 189.42668973133908 37.52930914661067
359.9745674326728 191.89423751424195 41.34579807221653
359.0024712447584 193.35523053424828 45.23899842116492
359.0000001641253 195.00105930177926 49.91730820403667
358.9999999971063 196.89317177085695 54.35172618543629
358.9999846625724 199.60280903590112 57.968604198099825
358.8704859971771 202.59007066000487 61.178374520845736
357.11090323020255 204.87832646798353 63.457066558137505
355.9900700847495 207.53364340864337 66.00744708428533
355.99999903066504 210.92381076359436 68.9537393127524
356.0000883081087 215.12128358723345 71.0827097379922
356.51108886413664 219.00887094079036 73.01065243061493
357.98817465860986 222.15439077510146 74.71456046781248
358.6902490806625 225.41859484493105 77.07455001524225
361.0045765169017 227.50148577907544 79.00413387735851
362.9863164878936 229.82064646208738 81.02908888293646
363.00191586075977 230.00013755261384 84.7817494175915
363.06018197540465 230.00289056875795 86.43589096780096
363.4167184375292 230.016104025079 87.7501820344713
363.82078422511773 230.33519045955336 88.70123117764554
363.9992633695718 230.75208123380122 89.77928274645218
364.19194877353976 231.00474716725654 91.00738667555542
364.59858865936366 231.12523591164626 92.15372637620106
364.93805515302284 231.5125623746834 93.10040286278681
365.192400993738 231.888353311941 94.14373550488386
365.6060041748466 232.13214976702017 95.15980517430422
366.0226120243647 232.5227199249385 96.0260947561508
366.42944040995275 232.92041706880025 96.89502769105054
366.83505291870665 233.35127438299244 97.73208072681561
367.0820747885264 233.7553042922566 98.75581926635216
367.4321757683457 234.21447350824118 99.60997928124429
367.97663636817185 234.6143464936169 100.34793716751686
368.6149029883261 234.95814978843728 101.0392683203038
369.34173459994486 234.99707400382928 101.94691711304554
369.98529577666034 235.00005319902894 102.97382766308002
370.6279755710795 234.99982616859555 104.00442097150588
371.38851274722134 234.99814163554265 104.91578174833913
372.2112616579463 235.0013096577127 105.7696127122149
372.78757438739126 234.71016977486016 106.57240498152419
373.011983805657 234.2686143006865 107.5532873272485
373.0 233.63 108.63
374.52445938595145 238.41926934544514 106.47000156117298
374.86612319287457 238.30484486181646 107.00790730120735
375.41224012765815 238.81507865375042 107.23106244312895
375.8418439307213 239.2127212655453 107.51009467974544
376.26179814791146 239.56773884141273 107.88598261059467
376.71876882478745 239.81291906487786 108.32531474921818
377.2200000000001 240.15000000000012 108.63000000000004
377.6804850976328 240.4040297450997 109.05801569147832
378.1410372410577 240.7002339034312 109.44733271596394
378.738834640086 240.92275671432054 109.77531860551353
379.2728317256234 241.06752450104602 110.22176523996731
379.75082719307784 241.4026195640406 110.56603299224973
380.11295038457985 241.93355296111187 110.81325885152049
380.3700000000002 242.47 111.15000000000009
380.676836119343 243.06566210313986 111.40116126909598
381.11442132865545 243.44446578488422 111.726510706211
381.48296638094746 243.7753063355283 112.17038701231924
381.8285426608722 244.22534234899152 112.51752350711062
382.27712432879883 244.5525610777332 112.8846039806114
382.58964876634855 244.94195993996905 113.32553368988744
383.00000000000045 245.3700000000001 113.63000000000012
383.4103509515379 245.67554232332228 114.05696388670626
383.72287802215146 246.1071843958129 114.4556518801387
384.1714444747289 246.5390232477537 114.71810359487772
384.51709026754827 247.03186018687109 115.02247861647439
384.8853756432885 247.51777284563738 115.31113543347846
385.3236786258989 247.94781908307877 115.58564969143052
385.63000000000017 248.3700000000001 116.00000000000016
385.8754804733566 248.85290931403586 116.41436910305889
386.0381721933398 249.55961684799175 116.6887079457788
386.2379290899583 250.20720311804678 116.97837841223111
386.50827719957135 250.77996825599143 117.27812247170105
386.8872404276596 251.26995361575257 117.55787388722055
387.322807860099 251.71995491400295 117.8142830469898
387.6300000000001 252.22000000000008 118.15000000000015
387.89041307762994 252.85130804731347 118.40111427150397
388.21871725842306 253.3406781691978 118.72652649559619
388.4782243830025 253.77880645349617 119.17039758396484
388.7615573430379 254.29931669864243 119.51745519462223
388.97475643891755 254.8578560229572 119.88485283675627
388.9958414453243 255.5359684363769 120.32490223257527
389.15 256.2200000000003 120.63000000000018
389.40296526213433 256.67023657026647 121.0710867728489
389.72576103780415 256.9026027409259 121.66569553884149
390.1708040272584 257.0119231494731 122.2452294585402
390.5165141238321 256.9972923525104 123.05469525810571
390.8880686705742 257.0004948186203 123.83725398022588
391.3167693688608 256.99994062176575 124.51106071770833
391.63 257.0 125.37
388.90061124972505 263.85227541546664 125.79741671870094
388.0002278127766 266.30765642564467 127.2016490271213
387.1050477604191 268.66400122351155 128.7157562245817
386.14632049167733 270.7902413929116 130.3764856300609
385.0897050276341 273.29177407181743 131.57404633255467
383.41913963405847 275.1931869076055 132.75656327727188
381.5153888613061 277.10355623254094 133.69754792041172
379.3551001414728 279.0157440714823 134.3800853965324
377.09807679936176 280.57251075578546 135.3195117061138
374.97967761190023 282.5333684880958 135.99733521851874
372.44072081595255 284.7449481929585 136.00189073242387
369.97094908071995 286.38765063892976 136.64506452772986
367.3120491295096 288.13679147615784 136.99154936185923
364.9665645530054 289.5856745791716 137.9523186586346
362.16478020339343 291.4580391558073 138.03327174855485
360.1866118071121 293.2572212331113 139.0110090427827
358.061491926751 294.91161281281614 139.9882402988969
356.46657081901134 297.3109237148751 140.75463280657573
355.9991978780365 300.3952228765425 141.95093991789193
355.99999978809984 303.7026990575174 143.3993430389822
355.9994799544672 306.9149742420914 144.9426716862592
356.51829191085824 309.79910975161954 146.29035465625108
357.961132104263 311.7093648816005 147.70548932429455
359.67719380471027 313.3996354034143 149.04567216968775
361.7172638008774 313.99863036739174 151.16165695823403
363.5565680407994 315.39136524087746 152.68471977971996
364.7612936488511 317.24232423379203 154.38413685765576
366.6837088599922 318.17675533104205 156.28248414937636
368.33877442795955 319.13204349414195 158.41710484452983
370.0638995357543 319.99656436664617 160.59258034791677
371.51713962301136 320.92877068192996 162.96225296680493
373.1879441228 321.67063094582807 165.3046978353222
374.8307017013683 322.6109022447667 167.48647173278437
376.2476996850692 323.7830944884688 169.64245231572664
377.97371275620964 324.48074997518927 171.97410916126898
379.426529466809 325.0168047923319 174.7403392097521
380.6154164605274 326.13335543893083 177.19000361074595
382.08546300630434 326.99598993364685 179.61242461102452
383.23878668221846 327.9231400091254 182.28705292975718
384.419532811749 328.9076716051697 184.87686748503202
385.14175859402457 330.35696639491823 187.4505762648896
386.3082772414787 331.00118577692035 190.40501736118938
387.05084214878553 331.74220681194396 193.67633834293432
388.0094402611991 332.7044461559234 196.5106033793516
388.36494955930266 333.99727086126984 199.61737141616257
388.9983738516023 335.0727899829408 202.66353004455277
389.00001834263486 336.511169531928 205.97860692911175
388.9945133464446 337.8893067666731 209.3615041590682
389.85 339.15 212.0
386.5691423028278 344.57056943170073 210.18200038311906
385.95600013664307 344.9971322255623 212.2851121270139
385.25642010843603 344.9993057086436 214.7464831389281
384.9906863557609 345.0837177763541 217.58430536936382
385.58567797649357 345.91676783366785 219.31328054730025
386.36532910399734 347.61695320045357 219.99726424860947
387.0076446002081 349.47404356658495 220.6616031166372
386.96924183959544 351.83566502907826 221.44035273324246
386.2577525479026 352.93331326640833 222.80030511322903
385.7188179007809 353.08434152086625 225.25942817659788
385.02830858906975 354.1322100240562 226.6918716691927
384.2376720128899 355.35421238182573 227.8426437852017
382.5442002034079 356.6661423154184 228.00050688836868
379.74085082075084 357.0266176094292 227.99994749637645
377.53167705199263 357.9777861891653 228.0028704546767
375.6099990501191 358.9559545896041 228.26628935851693
373.88566129174916 359.00038995850963 229.66078153542117
372.3895473455326 359.0000018252957 231.32832106771554
371.4278400074567 359.0004013573053 233.52948360176978
369.6565872177757 359.2314835379299 234.68997977579463
368.5068931690966 360.70658952673585 234.73525759150186
367.97041955506006 361.26274150619633 236.13423065315362
365.6708395827641 361.1001733511158 237.70033184235203
364.2590827363973 361.83370271963486 236.6562211485319
361.9238439538648 362.0003388589409 235.9958171087859
358.9484997267082 362.0003858712229 236.19419770335918
357.0410308310838 361.9553805539726 237.40456574811105
355.45871882424 361.238320536699 238.26846872443343
353.80041288697845 361.001641829447 239.5367171040425
351.09828452108843 360.99954732129464 239.9966745784143
348.74968069155796 361.16091023334815 240.64999475136636
347.98954585260077 362.34268265225035 241.87135302700372
348.0090576815667 363.96325280414305 243.4335581049538
[...]
POINT_DATA 540
SCALARS Labels int 1
LOOKUP_TABLE default
121 121 121 121 121 121 121 121 121 121 121 121 121 121 121 121 121 121 121 121 121 121 121 121 121 121 121 121 121 121 121 121 121 121 121 121 121 121 121 121 121 121 121 121 121 121 121 121 121 121 122 122 122 122 122 122 122 122 122 122 122 122 122 122 122 122 122 122 122 122 122 122 122 122 122 122 122 122 122 122 122 122 122 122 122 122 122 122 122 122 122 122 122 122 122 122 122 122 122 8 8 8 8 8 8 8 8 8 8 8 8 8 8 8 8 8 8 8 8 8 8 8 8 8 8 8 8 8 8 8 8 8 8 8 8 8 8 8 8 8 8 8 8 8 8 8 8 8 81 81 81 81 81 81 81 81 81 81 81 81 81 81 81 81 81 81 81 81 81 81 81 81 81 81 81 81 81 81 81 81 81 81 81 81 81 81 81 81 81 81 81 81 81 81 81 81 81 82 82 82 82 82 82 82 82 82 82 82 82 82 82 82 82 82 82 82 82 82 82 82 82 82 82 82 82 82 82 82 82 82 82 82 82 82 82 82 82 82 82 82 82 82 82 82 82 82 123 123 123 123 123 123 123 123 123 123 123 123 123 123 123 123 123 123 123 123 123 123 123 123 123 123 123 123 123 123 123 123 123 123 123 123 123 123 123 123 123 123 123 123 123 123 123 123 123 0 0 0 0 0 0 0 0 0 0 0 0 0 0 0 0 0 0 0 0 0 0 0 0 0 0 0 0 0 0 0 0 0 0 0 0 0 0 0 0 0 0 0 0 0 0 0 0 0 2 2 2 2 2 2 2 2 2 2 2 2 2 2 2 2 2 2 2 2 2 2 2 2 2 2 2 2 2 2 2 2 2 2 2 2 2 2 2 2 2 2 2 2 2 2 2 2 2 21 21 21 21 21 21 21 21 21 21 21 21 21 21 21 21 21 21 21 21 21 21 21 21 21 21 21 21 21 21 21 21 21 21 21 21 21 21 21 21 21 21 21 21 21 21 21 21 21 22 22 22 22 22 22 22 22 22 22 22 22 22 22 22 22 22 22 22 22 22 22 22 22 22 22 22 22 22 22 22 22 22 22 22 22 22 22 22 22 22 22 22 22 22 22 22 22 22 1 1 1 1 1 1 1 1 1 1 1 1 1 1 1 1 1 1 1 1 1 1 1 1 1 1 1 1 1 1 1 1 1 1 1 1 1 1 1 1 1 1 1 1 1 1 1 1 1