# vtk DataFile Version 2.0
Really cool data
ASCII
DATASET POLYDATA
POINTS 540 float
330.0 198.0 70.0
329.55429143709665 196.85043749463185 68.2149968451093
331.07178442681993 200.47634979611266 72.05967881576254
331.7623393495336 201.533685541543 73.2853056172776
331.9969516076601 202.2397955472789 75.19211885268122
332.00004726270464 203.34748381067388 76.93815857935658
332.000219890242 204.01641577494672 79.1266891277838
332.0 205.00000000000023 81.00000000000006
331.4061179910262 205.9841271435191 82.27950038413042
330.99344098443817 206.55628547455092 84.15142616679675
331.0001689776128 207.08004647083192 86.49155150196329
331.0006848239993 207.72069018002367 88.70856606495605
330.9720212271855 208.43987819650715 90.81785724452558
330.3352442981467 209.01938928551456 92.45871390993855
330.00000000000017 209.63000000000008 94.37000000000006
329.8780329972243 210.3377668683506 96.38805846262782
329.2080692881036 211.06713349480017 97.85816652746557
329.0033846041737 211.76258947992775 99.81212325112831
328.9523062694687 211.98735432417544 102.39458835766308
328.30224369443636 212.44331082074808 104.14908609839303
327.9900701776817 213.00754051066698 106.12591546504798
327.37000000000023 213.00000000000009 108.37000000000015
327.0026552718495 212.0684588063303 109.92938675105331
326.0410679054161 211.0319783247737 110.79096815746817
323.93769874383145 210.45816994601694 110.98345515111544
322.30809999992573 211.2102201032966 111.47634040982753
321.05462444792306 213.92507292851818 113.45549102202334
320.33793463782246 215.05526962732992 114.42500344911878
319.6300000000003 216.00000000000006 115.63000000000017
319.0119241619052 216.93622891449033 116.93431764655779
319.0026490903397 218.64915389118528 118.06147977912258
319.2582006141605 219.96388247498655 119.34937371106386
320.41077651688204 220.22880682755462 120.78898744338764
321.01165319778505 221.37081259955573 121.90324850200737
320.9998477032148 223.26697478079365 122.87603461493686
321.00000000000006 226.0000000000001 123.00000000000016
320.9999998760724 228.85716410077333 123.00005502871456
321.0000161752594 231.71135693719575 122.9970860057292
320.99912426505267 234.30279521326804 122.7304909458604
321.0503920243359 236.44842120680775 122.07024181150854
321.89926089780573 238.38567294679717 121.99921920979183
323.294603994336 239.848259094777 122.00001444790833
324.78000000000026 241.22000000000006 122.00000000000016
326.54248539174944 242.32206334864676 121.99261106062102
328.10034596041373 243.05569408115258 122.55694829330044
329.2987252725061 244.27328228619606 122.99827581754109
330.93991320739883 245.0079368016613 123.48075119481456
333.2730862207277 244.9998533708235 124.01263972661432
335.96772147269 245.0000019152121 124.17840881816903
337.63 245.0 125.37
343.33169025156303 246.00936599012874 121.96794514209543
346.62418495267434 246.0121877998638 122.00049015682822
349.173706187635 245.25533793796976 121.9999982226727
350.91148134128906 243.68698967803311 121.99999810596545
353.01121629520026 242.4808118212612 122.00020777151244
355.8411778184982 241.99649689630002 121.99205377108122
358.46526137224197 241.9991393478449 122.6767350747066
360.4839951005626 241.75728229907784 123.72227414965573
362.2229478204995 241.02319223250328 124.55495311057692
364.2517551863626 241.00462469337435 125.80498690780331
365.2288902000728 241.71695711279074 127.42149115379581
366.5117976955956 241.9869272599136 129.1747445391948
367.14626859446577 242.6236188987892 131.2097043433814
368.1146602357275 243.72278953514044 132.44826452000206
369.2303100787137 244.8403114929972 133.52121469540893
369.98639235909434 246.17554435929318 134.73603463070057
370.6802886259239 247.42708930331673 136.0986757095784
371.25608938377337 248.56270068742455 137.68596524843375
372.30946272308574 250.38500219216584 138.11284023920163
373.00646331254035 252.065949580937 139.049306465582
372.9997863771968 254.2667432016921 140.1620658919993
373.00000220283033 255.90254711610532 141.83214848335646
373.0000000047874 257.2416616946739 143.79921473175318
372.99999999959584 258.920892866302 145.3943598579372
373.7871293705615 256.95374869663044 149.41708355481282
373.9944110779149 254.2719960618302 156.17553836429835
376.18342975455505 249.46155584799817 160.4319473799979
378.2496415253982 245.2194310342112 165.39833494987394
379.00000342838723 239.9202681488716 170.61415053196512
377.8610217328501 235.99974522380884 176.81992871001452
375.79471142335655 233.97937460085743 183.99637026175492
373.5124857199607 231.06385249156276 190.06614088813453
371.4326281774235 228.19221752388862 196.38881257565563
369.99848178614945 224.99226288172179 203.0109796008484
368.09570799332107 220.26038957385157 207.65029353588739
366.24269527918625 216.65265064505616 213.45299006322057
364.0164377729661 212.30692880649818 218.13976865250586
361.9889664601121 207.3171916729999 222.38796613754388
359.9884558614968 201.35399551715747 225.68937101159835
358.9230197596651 195.42016280936127 229.95671897945817
356.17282996777715 189.67469982175368 232.72539563635556
354.12225826724494 184.5731913037168 236.83830495949377
352.0739008688065 180.5219548916948 242.00410980146842
352.0878908060242 175.91695205462278 248.50289103732374
353.35591927624745 172.3844001904312 254.96630309173932
356.1959208776333 170.00122238711583 261.00967128494915
358.7394898966892 168.99994322899278 268.72984290229095
358.999999956797 168.9999412921182 279.7347525483802
359.0 172.0 288.0
356.9353795885709 165.6481879812735 289.3068735920204
356.0868154407746 163.53787407600936 290.0114893479724
355.1837424497683 160.7329880286722 289.99836108989297
354.0219640824404 158.77790776487151 290.57538209272957
353.998110625718 156.0213758017436 291.4888740616126
353.38275252289253 153.4493038388667 291.9953134823304
351.06478830898305 153.00855477498754 292.93136730668726
349.467570730084 151.97752401410142 293.99579709696104
347.4776191063731 150.96644576661106 294.68894835768816
345.03214039491786 150.0243546938624 294.99571191520164
343.376137580388 149.04964744534985 296.0581693452624
341.42832435492033 148.29264982642013 297.04750283071564
339.210355092872 147.99990539726622 298.2306676201097
337.37498667227646 147.99924344909613 300.0900469982132
335.6104747134617 148.2364174150632 301.7822150530439
334.34115077949446 149.4013875860723 303.0415516314369
332.5018165551148 150.00447890889177 304.292711079722
330.505062335116 150.00005459069877 305.9947970207446
328.6843178736935 150.00000011984366 307.8679911957658
327.04390510861697 150.0000090998426 309.9214470084457
325.45847369810696 150.00303333999875 312.0268619655223
323.89860453215493 150.4378739796507 313.72531252901155
322.8609564998654 151.00152053659536 315.81852590727897
322.0330780576181 151.62514297682964 318.0609914052434
321.5387382766871 152.94866925173363 319.93700776436003
320.62133707774166 153.8580222850906 321.8041311191401
319.33261670493994 154.00327430690336 324.0640362755895
318.0230233308377 154.48122172889543 325.97037303051354
316.725213374748 155.00891696570577 327.8387453886344
315.9956419329478 156.12919564914574 329.68277281440425
315.9999270806513 158.01886130521737 331.49126985462385
315.99879961417497 159.45036814001924 333.75251290639017
315.65344586010514 160.8259453281181 335.72547274505
314.4663956056396 161.77003545768386 337.29531979037
314.00462456871605 162.4715530370895 339.8151540021955
314.36484310144937 163.9922750509736 341.6225123117293
315.2878817940996 164.96732553414654 343.41736546068427
316.95598739824476 164.99978434499877 345.4115681521495
318.3942122013382 164.99999960924436 347.6670126664524
320.1068247435171 165.0000138608307 349.64826388890657
321.746357012007 165.00261313559446 351.70009474066353
322.18006566325414 165.40304922836435 354.55016212005245
323.31853561310675 166.59162434927163 355.92570781297366
324.5073999650211 167.26076446423156 357.7571726258427
325.70205835327 168.43848459673 359.083925965991
326.8345236014379 169.3469356442469 360.7369081373811
327.5296063628307 170.8597253879037 362.2228983125503
328.2092458828379 172.38724868215073 363.7078584918985
329.0 174.0 365.0
359.0000000000005 174.00000000000017 290.0000000000002
359.8500000000004 176.15000000000003 291.0000000000003
360.0000000000002 178.7800000000001 292.2200000000002
360.0000000000001 181.63 293.37000000000035
360.0000000000007 184.00000000000006 295.0000000000003
359.37000000000035 186.22000000000006 296.15000000000026
359.0000000000004 187.7800000000001 298.22000000000037
359.00000000000034 189.37000000000018 300.63000000000034
359.0000000000006 190.63 303.3700000000003
359.0000000000004 192.4700000000001 305.53000000000026
358.8500000000005 194.21999999999994 307.6300000000003
358.0000000000005 196.22000000000003 308.7800000000004
358.0000000000005 197.37000000000006 311.6300000000005
358.0000000000005 199.63 313.3700000000006
358.00000000000057 201.63000000000005 315.3700000000005
358.00000000000045 203.46999999999997 317.5300000000005
358.00000000000017 205.21999999999997 319.7800000000003
358.0000000000002 207.22000000000006 321.7800000000003
357.37000000000035 209.00000000000006 323.37000000000046
357.3700000000003 211.0 324.63000000000045
358.3700000000002 212.6299999999999 326.0000000000005
359.0000000000004 214.21999999999997 327.7800000000006
359.15000000000055 216.22000000000003 329.6300000000007
360.0000000000002 217.62999999999997 331.3700000000005
359.37000000000035 219.21999999999997 333.1500000000004
359.00000000000034 221.00000000000003 335.0000000000006
358.15000000000043 222.15000000000003 337.00000000000045
357.63000000000045 223.84999999999994 338.7800000000004
356.6300000000002 224.63000000000005 341.0000000000005
356.0000000000004 226.00000000000003 343.0000000000003
356.0000000000004 227.99999999999997 345.0000000000007
356.0000000000003 229.7800000000001 347.2200000000007
356.63000000000034 231.15 349.22000000000054
357.00000000000034 232.63 351.3700000000004
[...]
POINT_DATA 540
SCALARS Labels int 1
LOOKUP_TABLE default
12 12 12 12 12 12 12 12 12 12 12 12 12 12 12 12 12 12 12 12 12 12 12 12 12 12 12 12 12 12 12 12 12 12 12 12 12 12 12 12 12 12 12 12 12 12 12 12 12 12 2 2 2 2 2 2 2 2 2 2 2 2 2 2 2 2 2 2 2 2 2 2 2 2 2 2 2 2 2 2 2 2 2 2 2 2 2 2 2 2 2 2 2 2 2 2 2 2 2 21 21 21 21 21 21 21 21 21 21 21 21 21 21 21 21 21 21 21 21 21 21 21 21 21 21 21 21 21 21 21 21 21 21 21 21 21 21 21 21 21 21 21 21 21 21 21 21 21 22 22 22 22 22 22 22 22 22 22 22 22 22 22 22 22 22 22 22 22 22 22 22 22 22 22 22 22 22 22 22 22 22 22 22 22 22 22 22 22 22 22 22 22 22 22 22 22 22 122 122 122 122 122 122 122 122 122 122 122 122 122 122 122 122 122 122 122 122 122 122 122 122 122 122 122 122 122 122 122 122 122 122 122 122 122 122 122 122 122 122 122 122 122 122 122 122 122 1 1 1 1 1 1 1 1 1 1 1 1 1 1 1 1 1 1 1 1 1 1 1 1 1 1 1 1 1 1 1 1 1 1 1 1 1 1 1 1 1 1 1 1 1 1 1 1 1 123 123 123 123 123 123 123 123 123 123 123 123 123 123 123 123 123 123 123 123 123 123 123 123 123 123 123 123 123 123 123 123 123 123 123 123 123 123 123 123 123 123 123 123 123 123 123 123 123 8 8 8 8 8 8 8 8 8 8 8 8 8 8 8 8 8 8 8 8 8 8 8 8 8 8 8 8 8 8 8 8 8 8 8 8 8 8 8 8 8 8 8 8 8 8 8 8 8 81 81 81 81 81 81 81 81 81 81 81 81 81 81 81 81 81 81 81 81 81 81 81 81 81 81 81 81 81 81 81 81 81 81 81 81 81 81 81 81 81 81 81 81 81 81 81 81 81 82 82 82 82 82 82 82 82 82 82 82 82 82 82 82 82 82 82 82 82 82 82 82 82 82 82 82 82 82 82 82 82 82 82 82 82 82 82 82 82 82 82 82 82 82 82 82 82 82 0 0 0 0 0 0 0 0 0 0 0 0 0 0 0 0 0 0 0 0 0 0 0 0 0 0 0 0 0 0 0 0 0 0 0 0 0 0 0 0 0 0 0 0 0 0 0 0 0