# vtk DataFile Version 2.0
Really cool data
ASCII
DATASET POLYDATA
POINTS 540 float
303.0 208.0 28.0
303.76430514194675 207.98895316797592 29.84958126501034
303.9976017943802 208.4181667090439 31.80892223234973
304.00210591476764 209.01047040850526 33.8241635065471
304.2427226518984 209.00199463303724 36.20426920775169
304.86207325452153 209.1624412956394 38.03666424801516
304.9950253180442 209.8580625738121 39.814457074076024
304.79020268700066 211.1581910301515 40.91761385095779
304.04039019193885 212.9372086077859 41.00113920229036
303.2651876772131 214.5191140629757 41.25627784605417
302.6008458206264 215.85202974226297 41.87126505615374
302.02556407689156 217.46579015894912 42.29446779559463
301.9991783433242 218.97874249346725 43.36737461674095
301.99999594871997 220.60166907381404 44.357510509767
301.99999676619575 222.36092816593188 45.21050605222452
302.0000781792504 223.8647414544723 46.318844471584306
302.00249403170096 225.24371246680673 47.549414273053245
302.233942436665 226.68822118171062 48.47884500632989
302.8540543249214 227.7903655693519 49.37599963454645
303.00103461252536 229.38662372798964 50.24499989243987
303.1940964715912 231.1532196604411 50.897581662623175
304.15669524151787 232.70864378364675 50.99180302530159
304.9225513490904 234.0547652181443 51.4921292515863
305.3970277854373 235.68114254348023 52.00297551070645
306.512858585188 236.84891520459664 52.28661804683354
307.0660628612177 237.8600623673455 52.777437453113016
307.4497549373423 238.6315863102884 53.224604296201576
307.8193809911628 239.46832551751274 53.60035388686322
308.2525163178739 240.1927995688319 53.97716651848064
308.62339480911254 240.99068095327496 54.36535554452725
309.19562262860853 241.5781159318756 54.75655725662947
309.8153813984219 242.25520497489407 55.011022831999604
310.4889865482593 242.86285724354883 55.28115337476665
311.0883806263655 243.42165488825978 55.67537808802182
311.8786825818055 243.89616970208525 55.96401587091147
312.59108306187574 244.48138353808773 56.20530349726794
313.0990101272377 245.14891951120603 56.588303770942076
313.7056097503366 245.77662507419873 56.91407855168488
314.4431562647081 246.3464282735088 57.13909405261345
314.9973022145865 246.9952196627347 57.49730024425547
315.5481248288999 247.64546706872076 57.85730270151001
316.2703830267133 248.2300668682672 58.08311211073441
317.0616401529385 248.67455894826318 58.40747520716787
317.6502604560066 249.26705282859143 58.77635280662024
318.3493327142286 249.68610768310566 59.209416287478696
319.2346639536503 249.98203803822534 59.57934067917443
320.39942023302854 249.99742705259783 59.95154273893897
321.5480144524224 249.9990235177517 60.347039259075174
322.6353695729245 249.95919003355138 60.73313864662541
323.63 249.63 61.0
322.27598358268415 251.80323663397928 61.068355274067734
321.006227839453 254.145209520421 61.197992918026785
321.46204591115117 254.08811346973553 61.33128603250773
321.83219423156885 254.09789253152283 61.48582298996445
321.8574178318003 254.572071885657 61.64505664115133
322.03820660872844 254.8631475448988 61.78271573188641
322.22004708777627 255.155263826579 61.906426590067554
322.34299859603306 255.56074917125662 61.99343781578114
322.55739215641444 255.95387868800265 61.99996688798623
322.8359160344768 256.278374603378 62.007985286305896
323.1061554883855 256.5317799488231 62.09659907235075
323.3669305466615 256.7562403150054 62.223848042561535
323.6143314823404 256.98420448895536 62.36065323129441
323.8408039635813 257.2229181673712 62.50768831371934
324.071487351917 257.42187342842976 62.69031715040718
324.3036288423211 257.57374901895156 62.91854291546596
324.4787953752854 257.7666936073314 63.16267235982314
324.63606681291174 258.00830651555384 63.376034941225875
324.85220447427287 258.2480545066202 63.53239613691459
325.0991562061887 258.43708919441724 63.708649277060985
325.32554879053725 258.5896069428684 63.94198287511551
325.4923338153205 258.7899011655539 64.18717467553583
325.6550815531065 259.0330555218745 64.39348240843142
325.8775619025831 259.26911268239525 64.54711463640459
326.1210780404569 259.454538484329 64.73071496586486
326.34347838658283 259.6077746744527 64.96725526829346
326.5211682612711 259.80166240970834 65.20656129404543
326.6597444940623 260.07016489373297 65.4142476404462
326.7886634909215 260.39913641021957 65.57583549226469
326.9590365063329 260.7121555631461 65.70478196652687
327.1445770381141 260.990923474574 65.84441854736792
327.28246295557705 261.2683607396218 66.03278439748237
327.4204365889481 261.5789819291939 66.19573411299571
327.5841040493113 261.9096632818244 66.32074129062977
327.72384830634456 262.1804411324438 66.52584659343266
327.86031378189614 262.3820009667045 66.79833075916012
328.0385806277499 262.546244210528 67.06662447485397
328.2364532484331 262.6915192170327 67.3403404270257
328.4714661214437 262.8249617876302 67.59087257513767
328.8109440712788 262.94032701247085 67.74442251188792
329.2194001697548 263.0056337782519 67.8764904386052
329.6428893930496 263.00646995944976 68.06497938269038
330.09766783204 262.99702068493326 68.23005594400155
330.58119301478706 262.99968002327415 68.35688483518348
331.05887240954905 263.00070309267227 68.5032845183287
331.46952218164654 262.9998475405651 68.67973088912986
331.8374151352268 262.9999073720293 68.89921656642994
332.3251177440723 263.00004621129386 69.19358483676329
332.63 263.0 69.37
328.9998184972839 270.2722836069999 73.15648598094353
329.0000380752991 274.70943973197524 76.14774119024777
328.3016447187973 278.3745802226078 79.21277878190304
327.21876315737796 281.66190585693664 82.27114301472633
324.94199900237277 284.6743242298094 84.41053190637699
322.4796167713288 287.0224828461209 87.02889850151247
319.2200000000002 289.00000000000017 89.22
314.34583186595927 288.99999889896156 91.77440438664102
309.71781592591583 289.0000000000298 94.5749587830291
305.0584291816984 288.99999999999983 97.34414346741282
300.8354596720877 289.0000000055503 100.54974538104808
296.2837334247903 289.0000590351143 103.42653392654299
293.2087344383504 289.7647082841906 107.02175760905213
290.37000000000006 291.1500000000002 110.22000000000003
290.00001674634075 293.96615780615167 114.46243040795017
290.0001421460257 298.1511056675216 117.70589504269402
290.9064826564206 301.4759221287414 120.90330952135214
292.55263352865387 304.9736965828535 123.18760793845802
295.0580633260521 306.4039217160874 126.68053629006124
297.75897659363574 308.2219367679101 129.59059152166182
300.3700000000002 309.0000000000001 133.63000000000017
302.96003680844944 310.0106327800181 137.45790184010417
305.5857518596833 310.9881043076897 141.28328668977036
307.9335019845004 311.4450237473187 145.9071885538958
309.00047331865557 313.4109039707763 150.30290842486957
309.00000009580754 316.84743982271556 154.2954173876244
308.99696663823426 320.72592199694185 157.84247321272503
308.0000000000001 325.0000000000003 160.00000000000017
307.01262956287803 329.03045369818585 162.41074783919038
306.0029418513167 334.03451632835595 163.82133120408875
308.11182529566753 339.14278644799697 164.02794840009744
311.08840802982013 342.06844225208914 165.5574343512939
314.8600106094371 343.99787799426423 167.28496853889806
319.5416833375252 344.00000446356177 170.02974916027742
323.63000000000017 343.85000000000025 173.22000000000006
326.4021579136366 342.997633439953 177.0237661138511
328.9419648008332 341.6597187479869 180.57488977117978
331.702472457249 339.9748787636949 183.55884709230116
334.0802199658075 338.99952875057227 187.63354224468156
338.26502323824934 338.9984934832401 190.87532799351493
341.6057809419327 335.8085547763452 191.77962544217695
345.2200000000001 334.37000000000006 194.1500000000001
348.15930860468063 332.52271825704145 196.7919811091585
350.59497974040266 331.0193141868729 200.28125809791834
351.99707160168555 329.30742512252726 204.5959813459833
352.000000175188 327.2098493593325 209.92414299580955
351.9999999183442 327.1784476697434 216.96440420277452
352.0030339634127 329.4597902879978 222.10825165829547
353.0 331.63 226.37
355.2869201315653 336.57295501467826 222.0927790087566
358.283612131185 337.2657086643714 220.98256341946077
360.4583794602788 337.99496584767456 222.86932844980763
361.87913763421767 337.3450149356327 225.57753696227556
363.714619850506 336.9931878828193 228.16937710932004
365.54918820171366 338.05127370083557 230.052600878698
366.0007429885883 339.78902478466637 232.63880351783473
366.01954731032725 341.62662084973874 235.55795978759627
367.62384373344923 344.35701457276167 236.0013436096711
368.90552321305677 346.8862710459905 235.03302159796115
371.32667104749584 347.9980439506831 233.79405128456327
374.8674875208054 348.00707995358306 232.55429104179606
378.20894425616626 347.1276542631334 231.99965733647258
381.87634058685995 346.0192090746043 231.99998865494504
385.3994261435955 344.75532733837747 232.01144591934352
388.26017128943937 343.7782719000427 231.07363382823613
391.28294458703056 342.1177106973266 231.01605920173606
394.2024329999734 342.75903888955503 231.99774413147625
394.98766987242874 345.9516439765782 232.79537968335808
395.94295793618807 349.0052889713651 233.56195717490866
396.0297893722385 351.8015146297814 235.45441028369368
397.64909360997456 354.0220829973927 236.39004788242906
398.58890346134655 355.9408954093336 238.30693582319742
399.00063263474175 357.8554140308625 240.75619823258145
399.00001167755 359.4725842296052 243.9151590687555
398.9962520786708 360.88245622023084 247.28459390552553
400.3316810622247 360.9997102352545 250.61480844957515
403.09757571716307 361.55966768806246 249.94516304225343
404.49700531943694 362.734172977205 247.7346176141555
405.6926648535104 363.91916873685534 245.34135191806334
405.35966415190506 366.3981796195456 244.00336642793417
404.41630714406955 368.92952002270107 245.30321081078574
404.0722177658424 370.52224230375384 247.99605413634995
405.46722605845696 372.1453727204705 249.75475042685346
[...]
POINT_DATA 540
SCALARS Labels int 1
LOOKUP_TABLE default
121 121 121 121 121 121 121 121 121 121 121 121 121 121 121 121 121 121 121 121 121 121 121 121 121 121 121 121 121 121 121 121 121 121 121 121 121 121 121 121 121 121 121 121 121 121 121 121 121 121 122 122 122 122 122 122 122 122 122 122 122 122 122 122 122 122 122 122 122 122 122 122 122 122 122 122 122 122 122 122 122 122 122 122 122 122 122 122 122 122 122 122 122 122 122 122 122 122 122 8 8 8 8 8 8 8 8 8 8 8 8 8 8 8 8 8 8 8 8 8 8 8 8 8 8 8 8 8 8 8 8 8 8 8 8 8 8 8 8 8 8 8 8 8 8 8 8 8 81 81 81 81 81 81 81 81 81 81 81 81 81 81 81 81 81 81 81 81 81 81 81 81 81 81 81 81 81 81 81 81 81 81 81 81 81 81 81 81 81 81 81 81 81 81 81 81 81 82 82 82 82 82 82 82 82 82 82 82 82 82 82 82 82 82 82 82 82 82 82 82 82 82 82 82 82 82 82 82 82 82 82 82 82 82 82 82 82 82 82 82 82 82 82 82 82 82 2 2 2 2 2 2 2 2 2 2 2 2 2 2 2 2 2 2 2 2 2 2 2 2 2 2 2 2 2 2 2 2 2 2 2 2 2 2 2 2 2 2 2 2 2 2 2 2 2 21 21 21 21 21 21 21 21 21 21 21 21 21 21 21 21 21 21 21 21 21 21 21 21 21 21 21 21 21 21 21 21 21 21 21 21 21 21 21 21 21 21 21 21 21 21 21 21 21 22 22 22 22 22 22 22 22 22 22 22 22 22 22 22 22 22 22 22 22 22 22 22 22 22 22 22 22 22 22 22 22 22 22 22 22 22 22 22 22 22 22 22 22 22 22 22 22 22 123 123 123 123 123 123 123 123 123 123 123 123 123 123 123 123 123 123 123 123 123 123 123 123 123 123 123 123 123 123 123 123 123 123 123 123 123 123 123 123 123 123 123 123 123 123 123 123 123 1 1 1 1 1 1 1 1 1 1 1 1 1 1 1 1 1 1 1 1 1 1 1 1 1 1 1 1 1 1 1 1 1 1 1 1 1 1 1 1 1 1 1 1 1 1 1 1 1 0 0 0 0 0 0 0 0 0 0 0 0 0 0 0 0 0 0 0 0 0 0 0 0 0 0 0 0 0 0 0 0 0 0 0 0 0 0 0 0 0 0 0 0 0 0 0 0 0