# vtk DataFile Version 2.0
Really cool data
ASCII
DATASET POLYDATA
POINTS 540 float
325.0 205.0 37.0
323.75719924804145 206.084872288113 37.13123108498978
319.6585505348792 206.0039881652513 39.92044878042077
316.5741717811947 206.00153459938724 41.47059693278157
315.9994774706173 206.75273079309974 44.777401698618
316.00492987435405 207.03266429354392 49.12419693260189
316.99596275275445 204.98573219921673 52.79148269041868
317.9296732979507 202.76310516887534 54.260269185681324
318.00612658568053 200.76617729915858 56.82127598603539
319.9644911938977 202.9656409982774 61.695027983242504
320.0000785281116 203.00023736896068 66.32638571672017
320.0000000947895 203.1424086945229 70.81677507874483
319.9997850045366 205.37635433325687 73.21526740589239
319.8031526014802 207.7149351851427 75.31270721225614
318.281056824533 208.98042611940957 77.15777356226629
316.9314546882861 210.42575874122102 78.99549186543246
315.9934198293545 212.28590872348838 80.8299600854582
315.9999713235111 214.94603056016132 82.80904280436337
316.00000014307017 218.62475479575946 83.76300032605886
315.9999980731689 221.86505001118692 85.15536007888362
315.98882815631515 225.65622653871688 86.0080065294571
317.11460014440775 229.17112923463608 85.99998490668725
318.61079328070974 232.3075740788836 85.99999998967427
319.5134547634833 236.0375642612969 85.99999741157151
320.4181899846627 239.76584731538483 86.00068083249727
322.127880968716 242.59422799966836 86.03805625585176
322.9706686520411 243.45573513448446 89.02278226312009
324.8154691576736 246.26617672960876 88.99998664475105
326.6620836603528 249.05220214772464 88.99999990530263
328.97293457259036 251.3740044375225 88.9999997888449
332.35609179706796 252.62350762608537 88.99999317100465
335.2913602564936 254.23674700302172 89.07710847066184
337.7819964716426 255.4298800738704 90.03332484208919
340.7626707434124 255.99930290428622 91.11557776870464
344.00844522518986 256.0000039230834 92.50175493113125
346.8612550722709 255.99999999619743 94.28160207437443
349.8632471281348 255.99999999507313 95.91226307044938
352.623799535028 256.0000033476556 97.78436748508096
355.2369412112891 255.9997935775046 99.80364358730776
357.0766005263645 255.46527707326675 102.06306802673915
358.7303033176866 254.09075263360907 103.67485504018363
359.99553117277395 254.00028838236614 106.94353549601868
360.00004740709073 253.48101416451468 111.05240133982703
360.0003295016791 253.00056170506895 115.20254955259395
359.6702097439485 253.5907959150263 118.9136118679935
358.51182440383775 254.7430463378455 121.24507771094711
357.60407451046643 255.6548658277095 124.05289589014541
356.70572924905366 256.00048894764626 127.43999255779612
355.0837617627582 255.96159513691939 130.41334938881695
355.0 254.63 133.63
354.09525150700983 259.2673047504137 131.43352046954942
353.9455066158324 260.50626029415633 131.40264102303257
354.0225117996675 260.6970678954138 131.95013519096014
353.9920986285242 261.4146057604309 132.1936131511355
354.00247884424857 261.91002691410523 132.57462953381113
353.99929552387306 262.44995756983116 132.93925814618123
354.00017919656466 262.9143922857404 133.37095046539088
353.99996139142735 263.29817299192916 133.8855805267623
354.00000561861066 263.6592797240306 134.42234127846822
354.00000045049796 263.990705524028 134.98888537762488
353.99999918529295 264.46700698946 135.41054573957683
354.0000003972612 264.8859943862849 135.88951488608436
353.9999999726859 265.4173687797265 136.25610112852965
353.99999952006715 265.9727077629585 136.59872006487439
354.00000180330954 266.49482581698544 136.97456408006082
353.99999443716354 266.9444852669308 137.42285522749287
354.0000150018107 267.35591261852653 137.90941084335742
353.9999671005536 267.8756325595675 138.28759472859443
354.0000416996216 268.4077453114212 138.65352736470493
354.00008810156265 268.9747759206413 138.98450955909968
353.9990508115046 269.5322886616292 139.3237573554523
354.0049034803193 270.1941363819089 139.56663190284306
353.9796190683257 270.7827022676022 139.84680765805987
354.09983299493393 271.343349005649 140.26726639460418
347.85326722246884 271.7098551702929 139.43247440151626
343.89019219893066 275.15410593255683 142.59321351143754
341.5294804574972 281.02755404875944 144.93052196340156
339.0000000000001 287.8500000000001 146.1500000000001
333.5322519359494 292.1036765668755 147.00000354712944
330.9926238001945 300.13570156761955 146.99977937524483
331.0106677321075 309.72122037190417 148.00338531352176
327.6231132707373 315.21065153925707 149.69781420225777
324.0553698586997 320.3261275270048 151.58672743270677
319.5986333108669 323.23506828846104 154.79213645034616
317.0000000000003 324.0 162.00000000000006
317.95182454535563 324.00303478573454 171.61669222741244
321.18337801068714 325.66458899043846 177.29489219174653
325.2694072205806 327.00338038540775 182.44144192250187
329.7243685128082 328.9047805031335 186.66505551294227
334.6962474365731 330.00303483216607 191.15785353685948
340.0301123988905 330.99715094751866 195.40130808217597
344.7800000000001 332.00000000000017 200.2200000000001
350.0293295548621 332.0000000013145 205.54209901525235
355.4573353568167 332.00000000000017 210.6855217860407
361.0890425090708 332.0000000000003 215.62524320521547
365.8961098848638 332.00000000000017 221.38960440085094
371.1526191781527 332.00000000000017 226.70452367899028
376.27401853503727 332.00000000000034 232.15455316530213
381.37 332.0 237.63
381.0123269942546 337.02444189291015 235.0400574890477
381.4270391841882 338.7345486573848 235.00872736491732
382.35435185813253 339.69629087148184 234.8067036058122
383.39582182188474 340.0117225116388 234.0813945532406
384.3896128252165 339.9983911843015 232.98508352841398
385.1912705140653 339.94307198562205 231.76439201809893
385.83241907023347 339.48102236516075 230.77883052534244
386.63597106325045 339.03599466077327 229.94684737636115
387.63909666230427 339.0016261177796 228.90277295861486
388.68293912304875 339.0000784279607 227.86653398615175
389.72723678443464 339.00000504684306 226.8292725472562
390.7697220200228 339.0000069140658 225.7901232691363
391.80996506474634 338.99967370971876 224.74906686524798
392.848105259655 338.9880309720844 223.7172171447156
393.8845382778746 338.57130017910737 223.08874830284168
394.91977115022746 338.05907039580677 222.55457830529204
395.9561745723713 337.4910142864454 222.07740518128082
397.04125392757885 336.5688988370893 222.00296729320857
398.5345123857138 335.9832992823384 222.0001920546365
400.01610547556396 335.38343585070754 222.00000743621123
401.0904793636922 334.3761283003455 221.99994458763766
402.2381219118583 333.44143212807035 221.99933153043338
403.8953301396635 333.0101722120034 221.99340764850155
405.60224263092033 332.9974834566997 222.35991093058243
406.7993650372627 333.3831333383483 222.85828958361313
407.83867066740527 334.2756039170494 223.00817102956395
408.87712112725063 334.9052269752279 223.4217793841573
409.94589414495977 335.4355312835511 223.90521679074425
411.1914332995849 336.18709240107245 224.00538356173192
411.98895867837217 337.21176456470613 223.75783466099688
412.8389792979766 337.9573764513732 223.25891760207838
414.33805551674027 337.9981054302032 222.72399948284212
415.6055445294147 337.9969138204572 221.91454089524518
416.8564626820654 337.8932684952413 221.18767311366742
418.135987735447 337.40412845043545 220.8747170526116
419.1908463584278 336.86657895558926 220.38549956665614
420.3829353885934 336.3652333282319 219.9972527329211
421.5197151969407 335.8238362423709 219.60395439715174
422.6307493493866 335.32490953244064 219.11524973866952
424.2327937290636 334.9893646328193 219.02785323807478
425.8947836840029 334.9991790872457 219.45179415286995
427.2579135503513 334.99995561125854 220.17061632385503
428.70489999543537 335.00021980078986 220.80505387390494
430.066205090068 335.00329259078893 221.52197414078805
431.3153526889704 335.09112854169445 222.2589171907213
432.29403367006825 335.67291408962114 222.7888685115149
432.80880272150364 336.6928268095979 223.33568133632286
433.35487168869577 337.6031759785202 223.9647742504577
434.0 338.0 225.0
382.9004857864368 332.0 240.2825187106427
384.4226551424327 332.0000000000222 242.9446872816215
385.9464581305881 332.0000000057217 245.60456225081668
385.9998741898414 332.0000010496333 249.73481848756785
385.9999932735643 332.00009138517174 253.9182695898526
386.0021121143332 332.1704119044374 257.9337407009751
385.30001398381535 333.004322148239 260.5812114559718
384.50734716397295 333.742256723001 263.2413960552764
384.0021315012273 334.52919391315476 266.12593544846
383.9999908619307 336.26445224662984 268.57227102973263
384.0004784898752 338.0001879285523 271.0207713433962
381.7703257460281 341.40263680095035 269.68057037699384
381.9568606082777 344.40328562082055 270.94202676151406
381.0468040529579 344.9972925297474 273.62257486694904
381.31150359254997 345.0007262111159 277.44453343593045
382.1388494729138 344.6450895780775 280.43521369558255
383.4074677234158 343.9919562073047 282.70713491514937
383.9975782095034 342.84318565492356 285.1527235602675
383.74565452262607 340.49524685410154 286.7307263992879
382.4586383731733 338.9474976294722 288.0795721204446
380.85222292740053 338.0140903123695 289.7192139354929
378.75931057503044 338.7982035351303 291.0018964025213
376.68075738893333 340.02546428395624 291.8792317043257
375.5252211584393 341.6362721672405 293.2948340997605
374.47830670530027 342.75512415255025 295.32273739334437
374.1078481103684 343.8075998453964 297.8627526587092
374.99430290884254 344.6198657418065 300.3450171715138
376.2969223475798 345.0005295690572 302.84540519831376
378.39824371937095 345.000004166344 304.92828272631095
380.49128994146633 345.0000000200924 307.0189141200737
383.0442303911119 344.9999999999523 308.6496471599528
385.55514092969753 344.9999999865208 310.32241010370626
387.8114972152778 345.0000017934166 312.24972554553744
389.4436103640303 345.0016005895788 314.7997445125944
[...]
POINT_DATA 540
SCALARS Labels int 1
LOOKUP_TABLE default
12 12 12 12 12 12 12 12 12 12 12 12 12 12 12 12 12 12 12 12 12 12 12 12 12 12 12 12 12 12 12 12 12 12 12 12 12 12 12 12 12 12 12 12 12 12 12 12 12 12 8 8 8 8 8 8 8 8 8 8 8 8 8 8 8 8 8 8 8 8 8 8 8 8 8 8 8 8 8 8 8 8 8 8 8 8 8 8 8 8 8 8 8 8 8 8 8 8 8 81 81 81 81 81 81 81 81 81 81 81 81 81 81 81 81 81 81 81 81 81 81 81 81 81 81 81 81 81 81 81 81 81 81 81 81 81 81 81 81 81 81 81 81 81 81 81 81 81 82 82 82 82 82 82 82 82 82 82 82 82 82 82 82 82 82 82 82 82 82 82 82 82 82 82 82 82 82 82 82 82 82 82 82 82 82 82 82 82 82 82 82 82 82 82 82 82 82 122 122 122 122 122 122 122 122 122 122 122 122 122 122 122 122 122 122 122 122 122 122 122 122 122 122 122 122 122 122 122 122 122 122 122 122 122 122 122 122 122 122 122 122 122 122 122 122 122 1 1 1 1 1 1 1 1 1 1 1 1 1 1 1 1 1 1 1 1 1 1 1 1 1 1 1 1 1 1 1 1 1 1 1 1 1 1 1 1 1 1 1 1 1 1 1 1 1 123 123 123 123 123 123 123 123 123 123 123 123 123 123 123 123 123 123 123 123 123 123 123 123 123 123 123 123 123 123 123 123 123 123 123 123 123 123 123 123 123 123 123 123 123 123 123 123 123 0 0 0 0 0 0 0 0 0 0 0 0 0 0 0 0 0 0 0 0 0 0 0 0 0 0 0 0 0 0 0 0 0 0 0 0 0 0 0 0 0 0 0 0 0 0 0 0 0 2 2 2 2 2 2 2 2 2 2 2 2 2 2 2 2 2 2 2 2 2 2 2 2 2 2 2 2 2 2 2 2 2 2 2 2 2 2 2 2 2 2 2 2 2 2 2 2 2 21 21 21 21 21 21 21 21 21 21 21 21 21 21 21 21 21 21 21 21 21 21 21 21 21 21 21 21 21 21 21 21 21 21 21 21 21 21 21 21 21 21 21 21 21 21 21 21 21 22 22 22 22 22 22 22 22 22 22 22 22 22 22 22 22 22 22 22 22 22 22 22 22 22 22 22 22 22 22 22 22 22 22 22 22 22 22 22 22 22 22 22 22 22 22 22 22 22