# vtk DataFile Version 2.0
Really cool data
ASCII
DATASET POLYDATA
POINTS 540 float
350.0 295.0 102.0
350.6935153358611 295.00594679629376 102.40105790739423
351.2929359660472 295.182745981165 102.67894747442952
351.72091921372413 295.43397699977083 103.0929214870057
352.12604813340175 295.7002228650373 103.49939700256378
352.4877413751959 295.97022417437114 103.9504316761245
352.7409175471706 296.2653927534085 104.48342629345177
352.95305268639305 296.5042709885167 105.1141190232085
353.00802223364605 296.86697761065625 105.77805823797712
352.9976475484142 297.27027473291736 106.46677223761331
353.002628405865 297.7018331477039 107.11186486193695
352.99424860933254 298.17362901531527 107.73008157507562
353.14595546290855 298.6238717119586 108.20976466109332
353.38532881400886 298.8655930318623 108.8103026433851
353.66476968634726 299.1874002224934 109.29068723430602
353.89347022190645 299.4194605451736 109.91155902873587
354.01106621002236 299.733832369346 110.56122386964273
353.99710093975045 300.15456446540037 111.23608969688178
354.00005405822355 300.49261821229766 111.97671548458328
354.00280631658825 300.8216873423507 112.72652674922412
353.98859862799134 301.2441192214131 113.39993521182066
354.0952286466871 301.5662937221377 114.05276334546127
354.3207503602101 301.7976329509279 114.67753505620905
354.5990798009836 302.11797320620263 115.16049801322292
354.84191891734906 302.3581400096831 115.75912474643677
355.0027690610835 302.79840269438813 116.23964457105559
354.9956457294149 303.2745980002702 116.85220524994904
355.0189866295016 303.6899353274135 117.49515967546121
355.2078775735223 303.8947733956759 118.18306331800127
355.46484671824965 304.05345531399894 118.84904489942559
355.7349939134494 304.2289958477715 119.48498986197032
355.94619646563825 304.57475940436194 120.00965624529562
356.0088242025671 305.0398291914439 120.56359200695891
355.99811278178197 305.60354244983455 121.09222049958983
356.0003666849327 306.22470164827894 121.55044786607704
355.9999332322048 307.0318344884025 121.8253582741319
356.0000205504642 307.9450721924317 121.99371427792116
356.00002102072415 309.0227992402196 121.9976331133814
355.99957408411103 310.05931376034874 122.04221625976717
356.0030508718063 310.4625572466396 122.72478352180289
355.9802001462505 311.1481184632472 123.09376379469744
355.74470477751066 311.6138100378101 123.4739951474127
355.23677091350385 311.9468353750839 123.72652959219347
354.4294857669444 311.99478755725784 123.94429846299941
353.4971123105222 312.07765796539184 124.00775315954272
352.586884225353 312.27207727062176 124.00261761667399
351.9806549064458 312.63748732986954 123.92030473714254
351.11765099704274 312.60975502650246 123.60255981725048
352.9428856801053 314.9964779450493 124.79955281221564
352.15 313.0 127.15
352.90323974899627 316.88085657983765 125.23121692222416
352.4660094233975 316.816321336032 126.00630541514265
351.98562004350737 317.0341194371571 126.50499369911896
351.45917208520194 316.9936968318214 127.19985275238169
351.16982336737306 317.00167579645057 128.08639024149488
350.8255478721493 317.0081424349582 128.91848431156203
350.5323775343258 317.2081598793895 129.60163670111604
350.0095732123714 317.49115007492327 129.98798910441604
349.5077537078709 317.7820687494419 130.38598516213952
349.05897022258955 317.9780551314689 130.92027373557553
348.62207306389536 318.15378087740424 131.47874936439803
348.13221700159903 318.4191401386654 131.91833387329584
347.6060987148056 318.75488639565896 132.23757498756578
347.2289012187933 319.28990846689743 132.51740537342414
347.0245287746452 319.98233919645537 132.79990764126816
346.9986077586599 320.94077572625207 132.99646383241534
346.9985570135475 322.1123662215146 133.0085846050945
347.00973613115764 323.10699442885505 133.2088791518132
346.9467890779456 323.8980448826796 133.5385914459436
347.21203445438124 324.74770674842017 134.1375671896823
345.2220715862492 324.045478080916 134.03430141473683
345.013475835057 325.05311795124163 134.00201136005109
344.9712766142323 326.177645655396 133.99795526833415
344.735299408131 327.27986433281103 134.00050477568652
350.1162201516179 324.69730540607264 139.36965143203378
349.0763443815336 324.9991456134232 146.46497991046562
348.9999047514185 326.98872940980266 155.9909576740879
349.99947853144727 333.5616787772808 160.01027129204775
351.99982188846195 342.9639134261465 159.8006072584118
350.68918731083085 348.6382946470747 155.19400529555836
346.06313355554516 355.4099192615624 155.0001530229105
340.8051270876568 360.13276521778016 156.61113738008095
336.55602045039603 363.2700156817966 160.8166170134974
332.8184003625178 365.6597348281331 166.28111451397982
331.001549049004 368.2729012285909 173.44290857582132
330.0002134034678 371.7300652038168 180.5762715338019
330.60429505183816 374.8238257622846 188.47987478655182
333.1913013471576 375.98945718828145 196.30903738064714
337.8197231600263 377.0000017456246 202.2619077243205
345.2982762087239 376.70756710261304 206.07334024732043
351.81430407736025 374.9877846131624 209.43878666964878
359.52598321106285 372.6690580548507 211.0002180271212
365.7855334888073 368.8368849463326 212.5003053369603
370.48867937528826 364.8360760438682 215.37865594134678
373.24465657103576 360.99098919057326 220.3779826342638
375.19517711708903 361.00135849881326 230.02795417697826
376.9982949506721 362.3168188791203 238.50121270081794
379.47277781346895 363.99934235974155 245.93602337051018
382.15 365.0 253.85
383.7414590932055 368.9585212975232 250.90599204900784
385.61721662169623 368.6967117317143 250.20687591797096
387.3601800206208 367.78938932307096 250.0058678533206
388.78874217701616 366.5884245938861 250.228108646748
389.9032530355954 365.9878908687627 251.37129618672586
390.87603449748235 366.0120577580254 253.25506905677491
391.0000000000001 366.63000000000005 255.37000000000032
391.00015637237306 367.00304691846407 257.8539455748127
390.98933156526465 367.0018573051289 260.7226237281337
391.50789385411645 367.34969592311455 262.71743650846116
392.4820197495492 368.89893189972724 262.94733023563464
393.4831527174297 369.90261888871964 262.1001506172799
394.8634961785679 370.0005585696931 260.72119637635905
396.6300000000001 370.0000000000002 259.63000000000017
398.15326317758894 369.99946935979557 258.29560663656173
399.8331197088049 370.09524282172816 257.21277943473
401.22125162527277 370.761620772665 256.4102987172499
402.4582137422403 370.999537704921 255.02920600865747
403.7395707829198 371.2081427843332 253.66199880138305
404.84221373033466 371.8779729517761 252.5773295455246
406.0000000000002 372.0000000000001 251.0000000000003
407.147893567017 372.0000158369026 249.29076655432482
408.61084940826106 371.9999996384271 247.89656275458086
410.34925801963095 371.9999843800413 246.7778451047775
412.2602927526539 372.0006890137337 245.83103230951806
414.35267455376146 371.9720211497775 245.09493911828525
416.4658973344655 371.33524429927076 244.9877958923378
418.37 371.0000000000003 244.37000000000037
420.13609254494213 370.87803280189866 243.40091688590076
421.62559319984564 370.2080842336509 242.70322325190892
423.04477750427804 370.00257562596113 241.47077330688876
424.15447333890194 369.99975702131394 239.72614488901672
425.3786977730285 370.006560382686 238.08642310463028
426.84888202122454 369.5938819914995 237.11214288680824
428.37000000000035 369.0000000000003 236.3700000000003
430.51666545237146 368.99977942629135 235.65974327259613
432.4375086808802 369.0000050344406 234.7232100005857
434.3600174994331 369.00021763278824 233.78880061811086
436.02374157325835 368.99039998006674 232.58585441461955
437.6133242532205 369.44338703857045 231.7802836816976
439.26012058627526 370.00431327185913 231.12196203818337
441.6300000000002 370.37000000000006 231.00000000000037
443.28254142823226 370.988090165893 231.5864798777756
445.1505208104294 371.00046708726154 232.56329910698958
447.56181206187387 371.0002045475556 233.00941183981377
450.4383850092924 370.9904038219438 232.9997863833945
452.8423148315727 371.4432610202541 233.0000039464801
455.13875029547546 372.007381955872 232.999999948453
458.0 372.0 233.0
383.58256090572263 365.00000024731804 257.21300826241327
384.0006499294904 364.99978047908826 261.590968865686
383.99982905114126 364.77040955571465 266.1579959357366
383.8130125691213 364.0023425601424 269.99902859593857
383.00095247048813 364.00000103513236 273.98054531925357
381.91418566954263 363.9972780092721 277.6870974415654
380.90857672971407 363.3185409861231 280.69520532632845
376.5430943919554 366.01732915766326 279.9090211887685
374.1378985749081 366.4110976333536 281.8896557503163
372.38190329998895 367.3597481445718 283.98101345089884
371.0226011827302 368.42117950030314 286.3565322588332
371.00207089276074 370.27197939756206 289.2768695293903
372.1582525592826 370.99636594159614 292.19232043373324
373.89083791171885 371.4061207378866 294.84589849310953
375.9611376468872 371.99967551252445 296.977962350772
378.8305759032545 372.00000224589184 298.9041157716775
381.5071815388481 372.00000004813495 301.02339804865886
385.3378607638251 371.99997364349804 302.0047970737067
388.8403765750111 372.00685194827093 300.7250936417731
390.7464418703917 374.1772131110191 300.00522382240706
392.89632987323574 375.84908429001194 299.02797675392094
395.24454248693627 378.26643200454674 298.9991143819249
396.9089959279279 380.91777429183196 299.4793523966182
397.000018153247 383.9277457223143 301.17427696567427
396.99428853176227 386.72723468807095 303.1764490751052
397.9694199958393 388.8899070146848 304.83797290022665
398.00025847533846 391.0659296522638 307.42360097387706
398.2081255363632 393.70719832559644 309.3704691610192
398.9915444055433 395.0391217870214 312.03641593989045
396.937515063813 395.9995216748735 314.2469209060963
405.37890519754876 395.98872882090075 314.300653389526
408.04400444030773 396.9365041293639 315.48889024638504
412.26919462588353 396.99395522619824 316.0019139688401
[...]
POINT_DATA 540
SCALARS Labels int 1
LOOKUP_TABLE default
12 12 12 12 12 12 12 12 12 12 12 12 12 12 12 12 12 12 12 12 12 12 12 12 12 12 12 12 12 12 12 12 12 12 12 12 12 12 12 12 12 12 12 12 12 12 12 12 12 12 8 8 8 8 8 8 8 8 8 8 8 8 8 8 8 8 8 8 8 8 8 8 8 8 8 8 8 8 8 8 8 8 8 8 8 8 8 8 8 8 8 8 8 8 8 8 8 8 8 81 81 81 81 81 81 81 81 81 81 81 81 81 81 81 81 81 81 81 81 81 81 81 81 81 81 81 81 81 81 81 81 81 81 81 81 81 81 81 81 81 81 81 81 81 81 81 81 81 82 82 82 82 82 82 82 82 82 82 82 82 82 82 82 82 82 82 82 82 82 82 82 82 82 82 82 82 82 82 82 82 82 82 82 82 82 82 82 82 82 82 82 82 82 82 82 82 82 123 123 123 123 123 123 123 123 123 123 123 123 123 123 123 123 123 123 123 123 123 123 123 123 123 123 123 123 123 123 123 123 123 123 123 123 123 123 123 123 123 123 123 123 123 123 123 123 123 124 124 124 124 124 124 124 124 124 124 124 124 124 124 124 124 124 124 124 124 124 124 124 124 124 124 124 124 124 124 124 124 124 124 124 124 124 124 124 124 124 124 124 124 124 124 124 124 124 1 1 1 1 1 1 1 1 1 1 1 1 1 1 1 1 1 1 1 1 1 1 1 1 1 1 1 1 1 1 1 1 1 1 1 1 1 1 1 1 1 1 1 1 1 1 1 1 1 0 0 0 0 0 0 0 0 0 0 0 0 0 0 0 0 0 0 0 0 0 0 0 0 0 0 0 0 0 0 0 0 0 0 0 0 0 0 0 0 0 0 0 0 0 0 0 0 0 2 2 2 2 2 2 2 2 2 2 2 2 2 2 2 2 2 2 2 2 2 2 2 2 2 2 2 2 2 2 2 2 2 2 2 2 2 2 2 2 2 2 2 2 2 2 2 2 2 21 21 21 21 21 21 21 21 21 21 21 21 21 21 21 21 21 21 21 21 21 21 21 21 21 21 21 21 21 21 21 21 21 21 21 21 21 21 21 21 21 21 21 21 21 21 21 21 21 22 22 22 22 22 22 22 22 22 22 22 22 22 22 22 22 22 22 22 22 22 22 22 22 22 22 22 22 22 22 22 22 22 22 22 22 22 22 22 22 22 22 22 22 22 22 22 22 22