# vtk DataFile Version 2.0
Really cool data
ASCII
DATASET POLYDATA
POINTS 540 float
365.0 195.0 32.0
365.82120973123153 197.05586966199658 30.2257228684592
368.1186200745969 198.45977035738076 30.7273047015605
369.00075639368055 198.99979359247615 33.95865895260469
369.0771555610847 199.00000320297997 38.535085741834266
370.01069719818105 198.9999999946971 42.25460893022056
370.1338882141586 199.00000000017002 46.784479132610805
371.07983821282176 198.9999996991609 50.4915906594462
372.0097870773137 199.00009753315186 54.21460518545293
372.0000133247522 199.1259636450188 58.751574050635426
371.99999990643795 200.01026108663987 62.52035125414749
372.00000550614476 199.99996697214976 67.183700369287
372.00212939646565 199.9918968608663 71.8424679608699
372.80096844567487 200.93998143090533 74.7546377164963
374.00724410531114 201.17872458486084 77.95688423563108
374.00002309255484 202.00456688513162 81.79132837622062
373.9999962232606 201.99998454607447 86.44899882254745
374.0005695867588 202.00000001089674 91.10147121867118
374.57011863355996 202.0000000000569 95.18498340719998
375.7715679183024 201.9999999987363 98.63659534827083
377.16575608643853 202.00000012013706 101.89546828294517
378.31122231474063 202.00020924280076 105.40285367658865
379.75193313196144 202.2252102373819 108.39047231044566
381.3759727750624 203.001067646766 110.64341015824726
383.06278688226604 203.96673837746573 112.64394536588705
385.11815535170166 203.99951887858666 115.20885638113133
386.9926418741344 204.36494711450635 117.62200290772704
389.14666497240864 205.00081058809778 119.48480500461886
391.24593523262723 205.69995688210219 121.34241911132175
393.3526964438232 206.61113273020243 122.97508011528392
394.83751277999085 208.22928711409006 124.52537408105273
396.211101949734 209.42441650743928 126.60084762797992
397.6007085515491 210.9590415615068 128.338158911417
399.01708205594946 212.27395399483916 130.25247394380224
400.2002194437839 213.41622504952554 132.57886065319133
401.3384592065623 215.40580263119728 134.10204546700245
402.2533849626116 217.24633796335806 136.00294954377387
403.1807391710261 219.07499254304489 137.90581420506768
404.11765747562924 221.14011999970876 139.55857827257788
405.50286096620744 222.72836942403214 141.24376095447846
406.00027819874435 224.94551661538551 143.17666971987725
406.31595886439277 227.54433822617156 144.9155265338728
406.996917884408 229.9373226780209 146.49469127925553
407.0061326188701 233.42694916765615 147.6487481453664
408.2703901922602 235.5692825457366 148.89482722066862
409.9616729075876 236.95345930790407 150.47255285229215
411.1606466368735 239.01832121041656 151.86121613081644
412.30418314924566 241.32012767113363 153.06085127584524
412.9898925872551 244.3552362256741 154.00275921639758
414.63 245.0 156.37
412.78405393577714 250.88070348616907 153.6855259148032
413.04598779687734 251.48691435348644 154.0699374243487
412.9976953756231 252.9292533970936 153.99189120862664
412.9991149026356 254.03161308296356 154.19396275525813
412.99948504139013 255.02253109019242 154.5085397409484
413.00214528171284 256.0174750183796 154.81711964287965
413.01190068766635 257.1235924041923 155.007364831646
413.2427303911949 258.20905350750985 154.9971953762844
413.5673791578704 259.1880562693478 154.99966665587567
413.8620091695546 260.2004056143237 154.99880970793382
414.0136980035841 261.31490381600236 155.038745117495
413.98671439728327 262.39409857243254 155.29265641845188
414.14598089318713 263.20878752726884 155.6248234162234
414.4433175962476 263.944188753222 155.89820793266347
414.7660366285033 264.7429546570638 156.0828454723305
414.991956470343 265.56143591353975 156.3445667564511
414.997600694487 266.526173694363 156.6803067611425
414.99992403489085 267.5779969971119 156.93228730892605
415.0024391103337 268.69564343242035 157.11823111824552
415.0106473536533 269.71061293672904 157.4011356163094
415.2283544747571 270.4675946727063 157.7333565971733
415.6626039674099 271.1071732748577 157.96189509180104
416.23987194022635 271.6425519817411 158.155268089212
416.99522593215704 271.92107345090443 158.54889334736478
419.53276418681486 271.9969921207913 163.09683481854185
421.1320096581544 269.3956060494619 172.16155883580817
424.6684349872843 267.1041639549122 179.60846217237096
429.164157052694 265.9498062394308 187.209153934245
433.78431055891184 263.44564901467606 193.36314581455974
438.3545324207125 261.8580787989015 200.45274390499608
443.4390666232646 260.99999956683064 207.78542274797135
446.2513596861731 259.999803163789 217.2382393959835
446.99926590089785 256.46588013823254 226.22171627815132
448.15405945974095 252.14674230583464 234.01309100935993
450.00431077027287 247.6493663181193 240.93056040051812
452.26152175646763 242.54849910130818 246.83800389619793
454.97515295005985 237.8580967947647 252.69930519543254
457.0047486418404 233.60417994769736 259.68121578471766
456.99999999958237 227.86451135151947 267.21145012743443
457.0000000000011 223.19930666503694 275.81155156299684
456.9999908978922 218.67610339147097 284.55364530977135
456.0001432321518 213.7062082666527 291.84920877736886
455.0037196984282 208.6063240337274 299.0182155363427
454.0002272430281 203.94739451017935 306.62066507666816
455.13791521735016 200.6499135262737 315.44097095408443
457.68030872238074 198.11036341495065 323.6430257188419
458.9469195987629 198.00000007154833 335.4162991299174
454.7289239821399 198.79617616261257 343.6672476621816
451.37 199.85 352.22
453.9319438428905 204.82976268025686 349.8691148727493
455.00381766426824 206.77333527774314 349.0231514820918
455.00085173763085 210.54989842905667 349.08386425361243
454.74403768922184 212.82009264808167 350.4341509215604
453.9973715630129 214.43788860862668 351.9472587934401
453.3063893480626 216.32939439594105 353.2452530026888
452.99639656970646 217.8411701688644 355.30417317610437
453.6350519040186 219.1570407591384 357.228484208113
453.99944118226404 220.94382306723367 358.9547616494077
454.0026191340074 223.2058473609165 360.56673117868394
454.5406243082023 225.25272499262582 361.8606606352848
455.0002014745696 227.2528725665275 363.277192393254
455.47558337227457 228.9481192476547 364.9858223026533
455.9966155133574 230.947670884993 366.3414356562907
456.18281046833454 233.29955794657877 367.6810109231426
457.001772998161 235.02212325465695 369.0166146028867
457.60950318206574 236.969751404437 370.33916843687206
458.0080837241938 238.88211425943612 371.9254467489988
457.2166824673719 240.092208509441 373.79772346317753
457.0104784920615 241.21639646318155 376.34500495459747
456.2701941290821 242.73025132733332 377.97540002045014
455.78688641683414 245.14877242974654 378.9408395688574
454.9952420956404 246.85956985673133 380.31942132075244
454.35044148089827 248.16619141971188 382.2455099632297
453.02489533301383 248.99280426853014 383.9719592415702
451.68776448923524 250.37766432521258 385.11648783975073
450.3509687910737 251.77543039515336 386.26947268908816
448.78063586897787 252.8320483979694 387.5203784231863
447.98904207759324 254.2355601499209 389.20112646347565
447.99994302877496 256.4124553055009 390.91401140145126
447.9999929715753 258.32359173787074 392.88048283684606
447.99952289352774 261.07176150562435 394.00939404088723
447.64277926887195 262.997787815885 395.60417512645665
445.73713539796034 262.99994853024424 397.57392156159216
442.272124942915 263.00001453446725 397.98639612228413
439.4390384234971 263.00305868168476 399.0278163850184
438.0136092767609 263.49206333534994 400.9909177368061
436.87137594031896 264.03351534358944 403.18197807989543
435.28426497135814 264.6980592006843 404.4199991453748
433.7251860683442 263.9942846611709 405.82173727391165
431.78879884833594 263.8555455654524 407.62375210538465
430.6614992990185 262.30585595878125 408.5943933364826
430.00453176965937 263.86668312983966 409.87328349498307
429.2407816824246 264.95870352400254 411.8985576940719
428.1990171108476 264.9891949863023 414.70089954462577
426.85522303104096 265.708570518466 416.5136339346015
425.79033783063716 266.71412094694335 418.3211541651717
424.9912037378077 268.2848685692501 419.8324801932963
426.0 270.0 421.0
450.42440099063134 198.08454519713578 354.2840684503551
449.1759392451878 196.4876775053339 356.21463820723943
447.54231002540297 194.8684765931987 357.73731837660785
445.958491742392 193.34082951361077 359.40112813665814
444.27284962972436 191.19005186858854 360.3395594636001
442.4586010594281 189.17653715366495 361.28485755001486
440.1096706758955 187.938638466185 362.47724711515434
437.926305598675 186.31111133959624 363.44215467860715
436.00917855418714 186.3648231640243 365.62374166182025
433.7157353601953 187.56520548322658 366.9062502059984
431.80416852291023 188.50910515166038 368.82564876215343
429.3697535743121 189.20624252228126 370.46134839669
427.6065979521978 191.03116615258534 371.65706762667
425.84412297658 192.12451583068466 373.57696921847634
424.7200394366792 193.53210124059856 375.81662120701316
423.5250258043319 194.971741890864 377.96145369365763
422.3091176210092 196.00878673891228 380.4840043445899
420.6447821351632 196.00000406950522 383.6039617391238
417.9320079529391 195.99999995657353 385.6667018739162
414.99294348770655 196.00000000012432 387.503147569215
411.64778428962285 195.99999999116213 388.93349858414916
407.94281822519076 196.00000118131666 390.0040415371447
403.75339994832444 196.00153337473805 390.58860577773225
400.755629034984 197.28316628325598 391.07779716374904
400.044872911506 200.33548861390597 392.0137815066033
401.19086775472306 203.29129747426418 392.68051569423704
401.8625820780273 204.35463003338683 395.4344113560411
399.66088726364137 205.40354035836324 396.9716038297166
397.33184769276335 207.32410013206277 397.49728487549544
395.8951612016249 210.13024300117664 398.02736582825685
394.84254229930934 211.85735914481103 400.02599359730493
393.9965688502922 213.12966395433213 402.68323137839116
393.4753957482732 215.02948771226355 405.03774477085045
[...]
POINT_DATA 540
SCALARS Labels int 1
LOOKUP_TABLE default
12 12 12 12 12 12 12 12 12 12 12 12 12 12 12 12 12 12 12 12 12 12 12 12 12 12 12 12 12 12 12 12 12 12 12 12 12 12 12 12 12 12 12 12 12 12 12 12 12 12 2 2 2 2 2 2 2 2 2 2 2 2 2 2 2 2 2 2 2 2 2 2 2 2 2 2 2 2 2 2 2 2 2 2 2 2 2 2 2 2 2 2 2 2 2 2 2 2 2 21 21 21 21 21 21 21 21 21 21 21 21 21 21 21 21 21 21 21 21 21 21 21 21 21 21 21 21 21 21 21 21 21 21 21 21 21 21 21 21 21 21 21 21 21 21 21 21 21 22 22 22 22 22 22 22 22 22 22 22 22 22 22 22 22 22 22 22 22 22 22 22 22 22 22 22 22 22 22 22 22 22 22 22 22 22 22 22 22 22 22 22 22 22 22 22 22 22 123 123 123 123 123 123 123 123 123 123 123 123 123 123 123 123 123 123 123 123 123 123 123 123 123 123 123 123 123 123 123 123 123 123 123 123 123 123 123 123 123 123 123 123 123 123 123 123 123 8 8 8 8 8 8 8 8 8 8 8 8 8 8 8 8 8 8 8 8 8 8 8 8 8 8 8 8 8 8 8 8 8 8 8 8 8 8 8 8 8 8 8 8 8 8 8 8 8 81 81 81 81 81 81 81 81 81 81 81 81 81 81 81 81 81 81 81 81 81 81 81 81 81 81 81 81 81 81 81 81 81 81 81 81 81 81 81 81 81 81 81 81 81 81 81 81 81 82 82 82 82 82 82 82 82 82 82 82 82 82 82 82 82 82 82 82 82 82 82 82 82 82 82 82 82 82 82 82 82 82 82 82 82 82 82 82 82 82 82 82 82 82 82 82 82 82 125 125 125 125 125 125 125 125 125 125 125 125 125 125 125 125 125 125 125 125 125 125 125 125 125 125 125 125 125 125 125 125 125 125 125 125 125 125 125 125 125 125 125 125 125 125 125 125 125 1 1 1 1 1 1 1 1 1 1 1 1 1 1 1 1 1 1 1 1 1 1 1 1 1 1 1 1 1 1 1 1 1 1 1 1 1 1 1 1 1 1 1 1 1 1 1 1 1 0 0 0 0 0 0 0 0 0 0 0 0 0 0 0 0 0 0 0 0 0 0 0 0 0 0 0 0 0 0 0 0 0 0 0 0 0 0 0 0 0 0 0 0 0 0 0 0 0