# vtk DataFile Version 2.0
Really cool data
ASCII
DATASET POLYDATA
POINTS 540 float
208.0 165.0 48.0
206.3061418226661 166.18743580585192 50.34337266511093
206.000245506927 168.4674092714591 52.981785966805205
205.98785919029478 170.39974304200555 56.285866727873454
207.72619522302531 173.1719252609583 56.99983869985647
208.99879545421436 176.05393059580678 58.0697229295711
209.70438601836898 178.13308931934102 60.50946343780042
211.2217020483068 179.50456297549522 62.84516354762678
211.9989756196793 181.87078936742864 64.92615338024305
212.37470083800514 184.79061516885272 66.85509215682075
213.89250308722254 186.8869471197366 68.46544337865696
215.23814132658876 188.73360588104308 70.50450657612838
215.2228316809272 192.81822317693306 69.99581781932201
215.99432354452537 194.5808281443414 74.34245580186408
217.41049294616062 197.73186230424145 75.00050252755955
219.13695587424567 201.18799593469805 75.03815634125027
220.95213224545446 203.03243939636468 76.6072439210376
221.5856763873787 206.11268911208762 78.11796114005813
223.016175311032 208.3823865418537 79.64227778522468
224.20105820230626 210.61415821566385 81.44175044253691
224.99712612687586 212.9948339891647 83.49784196749303
224.98835031027596 215.62524745368864 86.10068794514974
226.60985313250748 218.19032647193862 87.13859590552964
227.66946663511496 220.02362593220076 89.47017213980462
227.99095514426813 221.77681966578814 92.6210535844664
228.95832044905683 223.8593060673575 94.7992069689974
228.99997661217233 225.81196443333138 98.0247914130376
229.1622145750503 227.64748503084024 101.25152495234956
229.9969508169845 229.37702343944582 103.91146826498571
229.75554443965 232.3256229887128 105.94011108680081
227.47556481831933 234.80255479994133 106.41637936219858
226.00269725639768 234.99741224645945 109.96483788284432
226.67447126643057 236.19691672912202 113.31230913156645
226.99995788476673 237.95930709390825 116.4488982439816
227.28319752005228 239.76112557917224 119.58832996204377
227.9991765971601 241.31601788594074 122.54194837407262
227.99999100934036 243.3938006929257 125.68784096907478
228.03054411496205 245.35095491742854 128.92456711626133
229.07298042132282 247.2074915127956 131.24286966287937
230.57299568148233 247.98752044420343 134.19475217720165
231.000026827733 249.76982347541463 137.20974151788386
231.0000002425674 252.5019368654898 139.7021445244541
230.9999999995926 254.957335200911 142.47123622806845
231.00000000000043 257.25279650487624 145.40026471961335
231.00000000000128 259.1644195343773 148.71313148602982
231.00000000105908 260.6615581848307 152.44048263043732
230.99999727760476 264.29592581934253 154.03060751500405
231.0029361455119 267.9585300465326 155.5895545329672
231.91373521528163 270.2833902315196 157.57818381234236
233.85 273.15 158.0
234.04600177242986 278.1199345140153 156.7686722286275
235.88657869171792 279.92571190574694 155.99594000268846
238.76557303942315 281.45883266556956 156.0001110538774
241.05856162889893 283.4933921827286 156.08069936879568
243.6586385855742 284.37961809178506 157.00255964912154
246.6643206660215 285.7819872004914 157.00267172532307
248.94696570406865 287.32353918492197 157.58663796815262
251.16244215400508 287.99723036775555 159.10563360068863
254.65885383789356 288.0042844194284 160.01033113043357
256.16917764156335 290.2561337342261 160.65632127727204
257.9800830897562 291.5119552852016 161.99775754340988
260.1712698245309 292.6033569939452 163.12333236517287
262.1106953507163 293.45131426267835 164.74411285790973
263.89380222230375 294.5549239584019 166.26556622129178
265.1784665663194 295.0111049812935 168.9317063310755
266.829587592064 296.45433033053064 170.24678223066243
268.60649297064504 296.999386683871 172.3328959091693
269.9548938927247 297.4593958791788 174.93264900291243
271.64977359315264 297.9985071836506 177.10682126400792
273.68806730727556 298.0000029993213 179.4751950005082
275.98380231258056 298.0000003210092 181.58762654279923
277.3653483298923 298.00000688082156 184.61425037758983
277.9992489287793 297.9581162730662 188.34667092866403
278.57188248483544 296.9009766837324 191.13493238387724
281.9268750081355 292.08184653912474 193.4398837748782
290.0552094108305 288.9980830432593 198.7997972034629
299.9713224718498 285.07154390221865 201.52871234603828
306.00000000000017 277.6300000000002 204.6300000000003
306.0008117462448 268.7759618221453 212.34816918570655
303.1252830661544 263.9920834849055 221.25934232576049
297.7374099002324 263.99999999999517 232.4516956145126
291.0947849616837 264.0000237493577 242.38052291911106
286.41438598983626 261.17728941510336 251.4584723164851
283.0701870030851 255.77202324754325 259.27078168712137
282.0000000000003 248.22000000000017 267.22000000000025
281.0000000683259 241.24808273546108 275.81951137463
280.9999999781133 233.93271488592407 285.0755720042837
279.90657589372216 228.02601824737135 294.646797429912
274.8578749387017 223.76410348163145 301.90748298562914
266.8565417047273 217.40810526968158 304.12202599291646
261.76080769964227 207.81234591890743 306.001725037356
262.0000000000001 196.63000000000005 309.63000000000017
263.99981540243624 187.889536121367 315.46114929036116
263.9991766113448 180.58621303468396 324.7282731153523
262.9992154069411 177.01039905858363 336.7254694589316
265.00174246550284 175.002787128968 349.2867589491432
265.87599381742194 172.99692757270188 362.73006431444406
260.7953594121254 172.0009068068517 373.2249203549591
254.63 173.47 380.15
252.83523674887246 167.501087638101 380.69612285876167
250.99274595966392 166.38178323487492 380.98628785099584
249.87143325523041 164.81972367990073 381.6095252536233
248.6844664816613 163.0899389611913 381.9987331368208
247.4916615028165 161.24381469324538 382.26049100390793
246.41598369282494 159.7356600407137 382.9881685879494
245.33732493094894 157.92043813068008 383.4029059427064
244.9633559198363 156.08554349654662 384.4971309122865
243.63872516658375 154.71362500319344 385.09679327197915
242.61061832578744 153.83410236880047 386.49617240902245
240.9927638748775 153.1024324160999 387.4626324982607
241.05657970889825 150.27748987288538 388.00753783111816
242.00046132899962 146.01993944209107 387.99999267942746
241.5549663086434 143.15928451162816 388.0000327296403
240.7289994609585 140.68222135388442 387.99694248578396
239.27271390955593 139.17435069041971 387.6549762161973
237.49808274179233 138.3071432159938 386.99069240979344
235.79603015112824 136.6935628537584 387.0002028845651
234.1163616085961 135.06731398740726 386.9999990903296
232.1601688392621 133.71741793948328 387.00003414100644
230.8357898319804 131.72875015607488 386.99341824855935
229.92652854776716 130.19952086602814 387.8636325827032
228.98038062580193 129.99980691297253 390.02100973874326
227.12024435292005 130.00001944051505 391.4672020660849
224.3550162840019 129.99978359249275 392.00786110775266
221.0382766151513 130.0025250533617 391.99998534196965
218.44656453721495 129.2882450557184 392.0001157153746
216.76355976642108 127.65368959585581 391.98867793439183
215.67679543327588 126.04477669566234 392.5991231285864
214.13430786811796 124.68076761751142 392.99874647099506
212.50957560589262 123.25192272960446 393.25162930038937
211.08629564810346 122.09677955051006 393.9812118558817
209.48638476933792 120.59971317702308 394.17925263933296
208.47945847410767 119.76407065781542 395.645019507375
206.90049747634427 118.468240310774 396.0818703206301
205.84440972645356 117.62387139019476 397.4787405776426
204.87201847250114 116.28641505535997 398.48527665141125
203.95831859635658 115.17537956014101 399.7719563842417
203.02424580199494 113.64750254325676 400.61062649729604
202.10796436760506 112.32428691329298 401.6860699603377
201.41967927894447 110.02971354956557 401.99444698823555
200.05400295465142 108.42605984470134 401.6628079484545
198.92282928536136 107.33174796769677 400.58052638130636
196.78472921071807 106.75633202150819 399.98919884037167
194.30213310650842 105.92226512842878 400.00009662886384
192.82955974451497 104.08883917304289 400.0000323043169
191.8477484042917 101.75562230763695 399.9911742541457
191.03006814995052 99.83065540644391 400.5514304988238
191.0 97.0 401.0
253.99099887926877 175.3925057045808 381.23261041694263
253.99994122709995 177.35795184987694 382.90730492884336
254.0000180921014 179.77657656949813 384.12140418286305
254.00668355852102 182.51781187686507 385.0207980524021
254.031889016839 186.26192401861294 384.932970531068
253.99960627047122 189.79488260998912 385.0007393727265
253.99039885239824 193.4353468572404 385.00253214439283
254.64506452275245 196.03300376965439 385.38413978249866
255.00108805302298 198.14541881273706 386.54725014237056
255.4539496818903 200.1810721859514 387.69654860304433
256.00147108160473 202.19617636520462 388.76155796214266
256.5244446698434 204.05219164920686 390.0138402131671
256.99734617383575 205.6642953035952 391.5631616843693
257.0021377962042 208.1401922537085 392.71481091534747
257.5544780266913 209.74410758959542 394.1912098020721
258.88225647580174 210.83541535554536 395.4047549718332
259.7905451439311 212.40123595242525 396.5721794897866
260.71340218980515 214.44513999666506 397.22911479456474
261.6352507559728 216.00732061213708 398.377836735448
262.284843510184 217.59276918977173 399.77545027325897
263.21907039464935 219.37237188057856 400.69446667543673
263.9889618879352 220.9707438060779 401.95997076639
264.75730371827973 222.53271248155625 403.26071599612135
265.01643374953215 224.48847067493676 404.6792529293793
265.9272000220873 226.3167726060132 405.5728151594308
266.93128808111106 227.53851012263945 406.973944851379
266.60942094904226 229.5116335379765 408.1697403347962
265.99344299345313 231.17894509969798 409.5284167101272
265.99992953233755 234.3141458579981 409.96073403553083
266.00010212411564 237.1337489939052 409.1540628442766
265.7328410094231 240.341450894224 409.00239411318717
264.30097941531466 242.11983845994334 409.42865930006406
[...]
POINT_DATA 540
SCALARS Labels int 1
LOOKUP_TABLE default
12 12 12 12 12 12 12 12 12 12 12 12 12 12 12 12 12 12 12 12 12 12 12 12 12 12 12 12 12 12 12 12 12 12 12 12 12 12 12 12 12 12 12 12 12 12 12 12 12 12 2 2 2 2 2 2 2 2 2 2 2 2 2 2 2 2 2 2 2 2 2 2 2 2 2 2 2 2 2 2 2 2 2 2 2 2 2 2 2 2 2 2 2 2 2 2 2 2 2 21 21 21 21 21 21 21 21 21 21 21 21 21 21 21 21 21 21 21 21 21 21 21 21 21 21 21 21 21 21 21 21 21 21 21 21 21 21 21 21 21 21 21 21 21 21 21 21 21 22 22 22 22 22 22 22 22 22 22 22 22 22 22 22 22 22 22 22 22 22 22 22 22 22 22 22 22 22 22 22 22 22 22 22 22 22 22 22 22 22 22 22 22 22 22 22 22 22 122 122 122 122 122 122 122 122 122 122 122 122 122 122 122 122 122 122 122 122 122 122 122 122 122 122 122 122 122 122 122 122 122 122 122 122 122 122 122 122 122 122 122 122 122 122 122 122 122 123 123 123 123 123 123 123 123 123 123 123 123 123 123 123 123 123 123 123 123 123 123 123 123 123 123 123 123 123 123 123 123 123 123 123 123 123 123 123 123 123 123 123 123 123 123 123 123 123 1 1 1 1 1 1 1 1 1 1 1 1 1 1 1 1 1 1 1 1 1 1 1 1 1 1 1 1 1 1 1 1 1 1 1 1 1 1 1 1 1 1 1 1 1 1 1 1 1 0 0 0 0 0 0 0 0 0 0 0 0 0 0 0 0 0 0 0 0 0 0 0 0 0 0 0 0 0 0 0 0 0 0 0 0 0 0 0 0 0 0 0 0 0 0 0 0 0 8 8 8 8 8 8 8 8 8 8 8 8 8 8 8 8 8 8 8 8 8 8 8 8 8 8 8 8 8 8 8 8 8 8 8 8 8 8 8 8 8 8 8 8 8 8 8 8 8 81 81 81 81 81 81 81 81 81 81 81 81 81 81 81 81 81 81 81 81 81 81 81 81 81 81 81 81 81 81 81 81 81 81 81 81 81 81 81 81 81 81 81 81 81 81 81 81 81 82 82 82 82 82 82 82 82 82 82 82 82 82 82 82 82 82 82 82 82 82 82 82 82 82 82 82 82 82 82 82 82 82 82 82 82 82 82 82 82 82 82 82 82 82 82 82 82 82