# vtk DataFile Version 2.0
Really cool data
ASCII
DATASET POLYDATA
POINTS 540 float
301.0 199.0 48.0
302.94321819998663 198.49148226994615 50.074077001611656
303.85414659625155 200.37600871978427 52.79025198121157
304.75292374280633 202.21029912148214 55.5670611812615
305.0000131934128 204.01554892946865 59.02525417255865
305.00000407147564 206.4482137968677 62.10281082457742
305.00121146288774 208.8112564911195 65.25117946158385
304.04457282985516 211.01731077611734 67.59869062516547
303.1276608235623 213.3938284089798 69.81546506729411
301.9178664165551 215.48344244426798 72.0262624526387
300.3459962231173 217.0493592000745 74.39956272976244
299.15264707100096 219.2881407570594 76.47648931040473
297.82650403195953 221.27262633806316 78.67632662953827
296.14686119994604 223.48584389523631 80.29357934736022
294.8224277214899 225.42502158412344 82.53091276283443
293.2342346988998 227.6326038932815 84.25469611469912
291.5807398963106 229.67737861483974 86.06623428609348
290.4564957763592 232.2552407059087 87.86951508477668
290.88594175670335 234.86655553740016 89.43151245337698
291.0000514208611 237.80787889890996 91.8859468571851
291.0182948528014 241.50896654167906 93.67682023798524
292.1017969886692 245.6097542078847 94.00273452629138
292.992279713401 249.14200089693435 95.09021996931943
294.0763443246144 251.87864987299855 96.78388009932848
296.14876469872416 254.2416190712062 97.85938924354198
295.98244163351177 253.8174616427079 102.04039323617059
295.9961889349446 254.08601188075713 103.54173858910113
296.0019710764667 254.4619221168418 104.92274992059919
296.01189154323 255.0564676816618 106.0731591835887
296.3449963125533 255.60796511278227 106.94336673432981
296.778263555826 256.0487921587438 107.82971696157207
297.0023664530837 256.4719381795354 108.93419878404649
297.18438217573964 256.8781495948502 110.1007584452468
297.6047057439449 257.13565938158416 111.17796330576105
298.2583660724754 257.5495741671799 111.86427330969771
298.71787290894 257.97762331915555 112.74104589020524
299.1956608833591 258.41539188302386 113.56308199707767
299.6140891275861 258.8341790284136 114.50056189661686
299.9581956199792 259.30438301315496 115.43051426772018
300.2398361470383 259.73848206220754 116.47056583292118
300.6799420308029 260.02768037487283 117.49641496070815
300.99526876453837 260.35969962512695 118.60429678917198
301.4036018712854 260.79102091488664 119.52812423780138
302.2269354419156 261.000935324958 120.23987461791724
302.9245894570276 261.1974610840194 121.09998327886117
303.36557083090383 261.6235764084255 121.9902768178876
303.8954443022642 262.28010506066596 122.55907296542432
304.5081779450678 262.72842308863716 123.25603191187555
304.8983905903649 263.1940550763766 124.12908334577378
305.0 263.78 125.22
308.79620923711116 256.33461608088606 125.31607436106145
311.77804162721554 254.73843680327732 126.5063544536149
313.03027652782157 252.8404949006229 129.1329575285539
313.9984254641944 250.72570497802903 131.82923664530108
313.6664094832484 248.1717086984945 134.71571318804266
311.6699831151213 247.77087168945783 138.30823514731642
315.00164321327344 239.73698821273996 137.16610438507462
315.00000049762104 235.47706736498574 138.6811491611143
315.00000049095337 230.86501488965774 139.84460720279336
315.0102241095492 226.24331789458512 141.00834061653208
313.98973899177366 222.43014457517793 141.9493593147219
313.99999589097723 218.0509100625532 143.3570279474001
313.99999999912296 213.0845807278667 144.16621338043208
314.00000073246815 208.14401370048796 145.00115582516415
314.0030669018738 203.33160852127747 145.96119468062832
314.92631867839845 198.51747748521396 145.99932207212197
315.00006611789865 193.4908521933237 146.67445954481317
315.35992437600015 188.40072559100545 146.9999848884749
316.00327048672307 183.26857265012652 146.9999960409545
316.9422343680032 178.42123195489495 146.98920166852457
317.69162015136254 174.4167784419912 148.01087257634322
319.16584666390156 170.10462354286025 148.00000136875494
320.5797216364032 165.7429869395924 147.9999999970671
322.5384033942146 161.9261542559828 147.99999575972765
323.22954380998823 156.83296065535887 147.99117194740913
324.4117015753711 153.25304188440478 149.00460561232975
325.6110419366375 150.02270939070456 150.35044508669418
327.3074252963724 147.1576191775335 151.5601143749903
328.74758322537053 144.19169328336068 152.93971463820523
329.8951279551899 140.2731857993509 153.65276729809287
331.3819565401166 138.20224013644955 155.86109447126537
333.0977828227075 135.8603354442497 157.5788791641067
334.752096341001 133.76658377975195 159.60632413727154
336.2285135663872 131.61357425706336 161.7523356138865
338.413816620975 129.28075167335874 163.0100218088661
339.609626918005 126.04543310384618 164.35286436128993
339.99986473298264 122.5621200096414 166.25614782987302
339.9999999947523 119.09002745317223 168.5594152133217
340.000107180168 116.5338355475805 171.77861329113918
340.3750814267777 114.3643534858785 175.00979305761555
341.00037612249116 111.00269024695905 176.79828910185958
340.7313623552994 106.69553283398858 177.998323219714
339.06594877139855 103.59850337992187 179.01139092675876
337.4171516033956 99.46040177983413 179.00000250859102
334.2784074939187 96.8237563102408 178.99989012126895
330.9359466535349 94.93568378255469 178.45400396243664
328.3487546305157 92.20206362376291 178.00020172618295
324.2218786236017 90.57403717847662 177.97968587662123
322.0 89.0 176.0
305.20667391415327 264.3840107567703 125.71670610460585
305.50739836276387 265.00788055285204 126.00439751090525
305.8089044665497 265.6696266806257 126.31869095823312
306.00371946414 266.2467182707752 126.81086183784507
305.9966053004614 266.7121662181695 127.61771442598489
306.0027604829272 267.0264071640372 128.56258476986952
305.99487402563665 267.33853573836643 129.52396836855868
306.186153664938 267.66038375853793 130.27708406258387
306.7007144689891 267.9227646952763 130.77165112639278
307.3916443095695 268.00719265618034 131.25337121332834
308.3112956390828 268.00082690518207 131.60614589464555
309.09681887694785 268.0159351458186 132.06906747258725
309.64864027895527 268.2427218263375 132.55095507150463
310.07788076180464 268.5569392815454 133.08024944785913
310.36387496530426 268.8458459275251 133.7698587458462
310.8884779702817 269.0046510011549 134.3517454850598
311.448689249442 269.05741037028093 135.00411095821485
311.79918832323705 269.3162701824331 135.6600508616697
312.16008369720873 269.640032380597 136.24070021840728
312.47615332177804 269.9103338617163 136.91963530073724
313.0311097670493 269.9982195793051 137.54209921691034
313.5767774472476 270.1173141401691 138.1426431072742
313.87663132851526 270.39613580196897 138.82927368593624
314.2369191222127 270.7084130091942 139.42201480731865
314.53588032381606 271.0421048695491 140.0546678678695
314.82399890514426 271.346727407864 140.7272328706652
315.19073038699617 271.66662649661345 141.3059084225133
315.48055288793586 271.97734798670115 141.97067055393524
315.7769961541851 272.30336814980416 142.61351324703168
316.1390135010575 272.620286620491 143.19988355192146
316.4259691068329 272.91398941385194 143.88453127523414
316.73415966275314 273.26165653628004 144.4939797193345
317.0798328075429 273.5686852419091 145.10658399136508
317.3748267303429 273.8554513000697 145.79013013285345
317.692419825914 274.21854227322325 146.37475218655885
318.01618967755945 274.5138964259451 147.02093430477635
318.32899516206294 274.8044970055354 147.68283436267237
318.64871656200097 275.1709655438217 148.26195054633737
318.951653339371 275.458470833214 148.93681461912308
319.2866600049349 275.7595301585498 149.56605464756697
319.60018330746794 276.11611352419385 150.1612543753701
319.88974104115675 276.40501036969715 150.84810694409
320.2453651672001 276.71689751463333 151.44588700687237
320.544205406319 277.0574754983637 152.07185041577344
320.83758847916533 277.3524949857445 152.74861621641068
321.004464801053 277.8719337779195 153.3263789040294
321.05356007892897 278.4213831318515 154.00538049303026
321.2964495637239 278.8877458013563 154.508413840769
321.63 279.37 155.0
321.9982610973498 281.13800295802247 156.478500991356
321.99999004523386 283.5213258949652 157.7031882829172
322.00000006967775 285.6880089753079 159.14872554791168
322.0000000012255 287.9603189275862 160.48866066158885
322.0000000023242 290.4126318349136 161.64859265719997
321.99999887631697 292.81648549978513 162.85698276428724
321.99987316238276 294.6613042818001 164.62428316629703
322.0057409653752 297.10579721749133 165.7979029315574
321.2623616783284 298.75829196421756 167.01427379574352
320.33963661899884 301.462039625138 167.0000459734527
320.00222474086803 304.73691943289015 166.99999918552908
319.74765948345964 308.0945982668476 166.99999999212255
317.3993131333418 309.35849680680076 167.00000000001054
316.0464401476585 311.6178687190842 167.00000000000293
315.567721452747 314.7513949219858 167.0000000001491
314.0769730113758 316.872891396455 166.999999982268
312.84807991088024 319.25624658479865 166.9999965913877
311.3636454329975 321.38408091175853 166.9999726845045
311.0032314487254 324.55524409884043 167.08064041110956
310.8003012468292 327.1535012368718 167.891697969141
310.0192815532095 329.282851299681 168.59357311067149
309.2579562501695 331.48295038429217 169.24439362097945
308.60917069828906 333.67936823639246 170.0114351149582
307.99275531284025 335.5990364278156 171.08759643604517
307.96936313862057 337.81292780964134 172.46255777795872
307.16631206942327 339.7382093547344 173.34647006162768
306.9992632979934 341.51698285564464 175.01289268724682
306.99999726641437 343.4573353760607 176.6855190332108
307.00000003966693 345.65612859875614 178.09897348172694
307.00000000042024 347.42209540279936 179.94525153639634
306.9999999999999 349.2098698189952 181.76972201773955
307.0000000000003 351.0377517696349 183.55408496505922
307.0000000000003 352.8760118138232 185.32806981883024
[...]
POINT_DATA 540
SCALARS Labels int 1
LOOKUP_TABLE default
121 121 121 121 121 121 121 121 121 121 121 121 121 121 121 121 121 121 121 121 121 121 121 121 121 121 121 121 121 121 121 121 121 121 121 121 121 121 121 121 121 121 121 121 121 121 121 121 121 121 1 1 1 1 1 1 1 1 1 1 1 1 1 1 1 1 1 1 1 1 1 1 1 1 1 1 1 1 1 1 1 1 1 1 1 1 1 1 1 1 1 1 1 1 1 1 1 1 1 122 122 122 122 122 122 122 122 122 122 122 122 122 122 122 122 122 122 122 122 122 122 122 122 122 122 122 122 122 122 122 122 122 122 122 122 122 122 122 122 122 122 122 122 122 122 122 122 122 8 8 8 8 8 8 8 8 8 8 8 8 8 8 8 8 8 8 8 8 8 8 8 8 8 8 8 8 8 8 8 8 8 8 8 8 8 8 8 8 8 8 8 8 8 8 8 8 8 81 81 81 81 81 81 81 81 81 81 81 81 81 81 81 81 81 81 81 81 81 81 81 81 81 81 81 81 81 81 81 81 81 81 81 81 81 81 81 81 81 81 81 81 81 81 81 81 81 82 82 82 82 82 82 82 82 82 82 82 82 82 82 82 82 82 82 82 82 82 82 82 82 82 82 82 82 82 82 82 82 82 82 82 82 82 82 82 82 82 82 82 82 82 82 82 82 82 123 123 123 123 123 123 123 123 123 123 123 123 123 123 123 123 123 123 123 123 123 123 123 123 123 123 123 123 123 123 123 123 123 123 123 123 123 123 123 123 123 123 123 123 123 123 123 123 123 2 2 2 2 2 2 2 2 2 2 2 2 2 2 2 2 2 2 2 2 2 2 2 2 2 2 2 2 2 2 2 2 2 2 2 2 2 2 2 2 2 2 2 2 2 2 2 2 2 21 21 21 21 21 21 21 21 21 21 21 21 21 21 21 21 21 21 21 21 21 21 21 21 21 21 21 21 21 21 21 21 21 21 21 21 21 21 21 21 21 21 21 21 21 21 21 21 21 22 22 22 22 22 22 22 22 22 22 22 22 22 22 22 22 22 22 22 22 22 22 22 22 22 22 22 22 22 22 22 22 22 22 22 22 22 22 22 22 22 22 22 22 22 22 22 22 22 0 0 0 0 0 0 0 0 0 0 0 0 0 0 0 0 0 0 0 0 0 0 0 0 0 0 0 0 0 0 0 0 0 0 0 0 0 0 0 0 0 0 0 0 0 0 0 0 0