# vtk DataFile Version 2.0
Really cool data
ASCII
DATASET POLYDATA
POINTS 540 float
304.0 254.0 50.0
304.7811825184009 255.06868488150596 51.87042624147176
305.7338727381115 255.97712388383715 53.724161305585746
306.4064304049032 256.8747622311096 55.86168038250961
307.12509571049964 257.5935707396559 58.13847619880202
307.9526451776844 258.26612953187345 60.352629735761106
308.02777838264205 259.2190705513887 63.03592077762781
308.8500000000003 260.0000000000002 65.15000000000006
309.3022435721081 260.7910208054658 67.62103531305193
310.0115106573221 261.2417004254152 70.17536047018852
310.011947974966 262.4132866043492 72.71762256396079
310.8207828829638 263.12500183535406 74.91135813882191
311.2701991873052 263.9410463415513 77.3601830425725
312.01100278736897 264.69146915826246 79.58324234008316
312.0000000000001 265.63000000000017 82.37000000000006
312.79191261025767 266.3028619698172 84.6195111334147
313.00081279333676 267.48269071621314 86.94506778260822
312.9999984901556 268.66050090677413 89.48234927192256
313.00053016425426 270.04643084193293 91.81124061704213
312.7304554862694 273.3011761070007 92.00023033632966
311.98514429930367 276.2478478038809 91.96233386040701
312.0000000000001 279.22000000000025 92.78000000000004
312.09573560748333 280.3107323818829 95.2972534966705
312.92918416295294 281.53049167164176 96.96888359644504
313.18587773394523 283.5306567687911 98.40603574670803
314.40374095075504 284.1274107026686 99.32587952946923
315.27406397159217 284.53892239508576 99.87428773253103
315.80158004534445 285.1799979394043 100.50749093077089
316.48367166099223 285.89696483860484 100.90502630283167
317.263098289502 286.82144984523745 100.9970866693374
318.16930406955015 287.58190805853553 101.1262826758041
318.8658054548795 288.25703052995937 101.54928827737616
319.74619474029157 288.73632849576546 101.99326288891668
320.7930119136126 289.0103614006214 102.46227110519344
321.80872556564805 289.00026003049487 103.25224738357983
322.70533156341435 288.99994210803584 104.1518672955356
323.5857597211732 288.9999892248028 105.06731192670718
324.40565107840087 288.9999989133751 106.04332956458643
325.08791568321004 288.9999999279508 107.15698234569462
325.7966225538895 288.99999999722087 108.24419377537654
326.69535087950084 289.00000005817043 109.14138375630696
327.57730370640576 289.00000113513806 110.05534822135421
328.4473845861333 289.000013254926 110.98117360702469
329.5284259180469 289.0000975338472 111.69596648760029
331.01744590821494 289.0001020843497 112.00286032097543
332.50137173520983 288.99125741427997 112.32368451150944
333.5756277263972 289.2786109121835 112.75777143398909
334.44549191841924 289.7259378375842 113.2340997188099
335.31948766556474 290.0092197354373 113.8572097702624
336.22 290.0 114.78
334.9999998900168 277.18487479852746 118.45018107131045
334.9999432305515 267.28567653967053 121.81634568454916
335.9974181841488 259.1876846654199 125.9812871495877
335.00455435082404 249.80576973214127 128.86244060150307
336.0332526662123 239.9232545543877 131.2130797706857
337.0000003247785 230.4902314699096 134.08206788709813
337.94277216182235 221.08677819882834 137.00114889414908
342.3989706580693 215.1616456492832 139.88512397080586
344.92277090428615 209.4732476119638 144.93823180972123
346.0841167595862 202.9356993708836 150.50454628344997
348.3494946585504 197.40170292070124 155.97057560384218
350.67557277812153 191.9337129792875 161.4418136705539
353.05047507545834 186.58048424487816 166.9789887589931
355.00655947875214 181.7225813093699 173.42952484907286
354.9999999999862 176.6378770939036 181.6174689306542
355.000000145177 171.6449900129502 189.88988813370747
353.8017288367409 167.00024274774856 197.3110075118555
350.42688995109046 163.91123960976586 204.11363964898578
348.99982064292317 158.9853207833994 211.02595932663627
347.0036965759492 153.43673296459434 216.74654794733837
343.9835145195327 146.4457638691547 220.00075537020098
336.7532252148434 143.00231522744147 217.4123950365771
330.3459558384892 148.40977572180984 218.03822093887723
328.042536811225 152.0008695075995 225.40899105737685
322.93054123775624 150.3957949179151 231.95898921610328
317.8258358509868 142.27049344173858 232.00571152422094
311.2487135023609 136.58800340477507 230.99998178236518
301.3492240362078 135.99040348636905 233.788537044536
295.1146373113479 137.54047945129918 239.26803541495505
289.4920178680666 141.61980046266294 242.84185484876863
281.66686165836995 137.10864853712724 243.00000000134446
270.5131794631457 134.99722721719158 242.99979740129598
264.9996081290421 129.77974145475713 240.46554837538514
265.0003829550526 121.76959274011173 235.20961614157093
261.8944311903652 116.27652007440065 230.54333444939135
253.96653812431535 114.00294638708047 227.48549088496281
245.49503715070776 115.00061736253548 223.6879470655521
239.7432082080497 111.33859967438782 219.83655946892145
234.6178459978307 107.08289102166466 215.95256058154112
226.9616909152958 110.0353025745151 214.52098306949273
218.44574236471175 114.32988346996676 214.99341026735667
210.04071773837188 116.99744461039009 214.81386836724164
202.60936763822696 120.78109496737616 212.76357057146424
197.1657438192634 124.29063129587982 208.4545362550889
191.38923979607455 125.8620325536334 202.80996462036504
189.31953662008658 122.09172286970616 195.37576948319818
186.7503281789031 117.58566843672868 189.19461562943366
183.99392811493678 110.27204878169643 185.99932923158062
183.0 100.0 184.0
337.22767349002584 289.8443717403763 115.63584932867812
338.015584381301 288.98123134410775 116.00561160502005
338.6485409754365 287.97285641984837 116.38592903301632
339.39502204763005 287.18576880731825 116.87241150024597
339.8684028661349 286.1611440210104 117.39471744512824
340.1734954598027 284.93611178065436 117.88389444804139
340.6763200235087 283.93751818559974 118.40493655568153
341.4159436874975 283.14805098083775 118.89543982319722
342.0741494147506 282.3008135868846 119.41030813470498
342.68967788104277 281.5680986060615 120.0819568590786
343.63591460658654 281.1057910672521 120.70337975800646
344.7822025898063 281.00279857508167 121.46558990422837
345.92409814599006 281.00195121828654 122.33967975679006
347.3539591453215 281.02988641491754 122.90189993350506
348.8280692123465 281.48124001194356 122.99681551272191
349.92522933791776 282.4015335887846 122.99976785230054
350.93659861048104 283.410357011937 122.99998316461505
351.94536298931445 284.42198515690825 122.99999878499527
352.9544912986643 285.43326376744324 122.99999991270536
353.97218919004246 286.435972286948 122.9999999936654
354.7426754417614 287.685869979461 122.99999999824082
355.01186606394316 289.4367381910973 122.99999998099888
354.99815432646034 291.4658386695639 122.99999972734517
354.94381632137373 293.4334966718024 122.99999609665734
354.5078862846615 295.0181442607933 122.99994433701109
353.79042400082807 296.3219207071281 122.9992093019664
353.17939395890613 297.7429377096274 122.98881167492324
352.4838027689571 298.780661507594 123.26950905205481
351.7821929738803 299.60768122326994 123.76605360255695
350.96533780137867 300.5687418337551 124.00882061644641
349.9419714855897 301.57407874226885 124.00054454496124
348.83731845060134 302.4911566507601 123.99922467202444
347.57523306023626 303.2599811366976 123.98874532526905
346.47948105680064 303.87638085747244 124.29730724928146
345.62491717027484 304.552498814992 124.79484264571887
344.6642505458179 305.28428349302794 125.10525922585563
343.71666036622236 305.901615155478 125.57076432334974
342.8900081593308 306.5770404910761 126.08851819108415
341.8634578325053 306.9728713385838 126.68650750411592
341.0684296417862 307.3267693769847 127.55798742663465
340.4075280008571 307.9346239177314 128.30964478521093
340.01162997972693 308.58956168165474 129.27928730438936
340.00020608435256 309.33032641203124 130.54837696314158
339.9943283219271 309.82858817295977 132.07512239667005
340.34996480412747 309.99660742780793 133.5717997795093
340.8377855823713 310.3521087894247 134.74888340544655
341.0007854776687 311.34180746398005 135.61661032090078
341.0000272218561 312.9818660174494 135.99783998717578
341.0 314.85 135.85
345.55322495140143 312.0083121879031 139.72459935530657
349.29036753675695 312.00078596638787 141.28195678536696
352.46068579046266 311.41403744940874 142.82044786659654
355.2954198049833 309.33129497384067 143.17872809465283
357.98026917683467 307.53906395401594 143.98736621469268
359.65029661466707 304.91096316949876 144.9749522598731
361.37000000000006 302.22 145.85000000000008
362.20888072873385 299.3794073005013 147.4477547265992
362.98610589274466 296.63939350738195 149.22462509259483
363.98809549533644 294.66877519500326 151.53745587384282
363.9999897376923 292.574056679946 154.71692377127255
364.0001387701742 290.98857016070264 158.4169748875278
364.39770429964557 290.44405106115585 162.76596438673695
368.37000000000023 289.3700000000002 163.00000000000006
371.9770399261919 289.1218924374084 164.4315090768046
370.48255976353414 283.95033689579543 165.0007500640055
369.67193905980434 280.06620533736805 165.5938915021385
367.9951519873148 276.87339982648604 166.0117476244936
367.07984178743396 273.55090761527254 167.05912974069605
366.0388168735375 270.5551801837356 168.30755727421374
365.0000000000002 267.63000000000017 169.62999999999997
364.7919282580495 264.62422769425365 171.701870238632
364.00257134920327 261.8850438251549 173.459043745786
363.9999988627292 258.71716164179577 175.57430336166723
363.9999999989886 255.53739839010035 177.68025553194576
364.00000000000193 252.98309079880102 180.4116622273751
364.0000000003993 250.12117336430208 182.83545907818885
364.0000000000002 247.2200000000001 185.22000000000023
363.99952906312404 245.27520333951745 188.56138856210805
364.5189813794649 243.1584497633703 191.2108969553345
365.00021789271494 241.65978271479435 194.5167076792225
364.9969272620759 240.12143421648784 198.26736409726936
365.92977151568164 239.761621901452 202.26042181434198
[...]
POINT_DATA 540
SCALARS Labels int 1
LOOKUP_TABLE default
121 121 121 121 121 121 121 121 121 121 121 121 121 121 121 121 121 121 121 121 121 121 121 121 121 121 121 121 121 121 121 121 121 121 121 121 121 121 121 121 121 121 121 121 121 121 121 121 121 121 1 1 1 1 1 1 1 1 1 1 1 1 1 1 1 1 1 1 1 1 1 1 1 1 1 1 1 1 1 1 1 1 1 1 1 1 1 1 1 1 1 1 1 1 1 1 1 1 1 122 122 122 122 122 122 122 122 122 122 122 122 122 122 122 122 122 122 122 122 122 122 122 122 122 122 122 122 122 122 122 122 122 122 122 122 122 122 122 122 122 122 122 122 122 122 122 122 122 2 2 2 2 2 2 2 2 2 2 2 2 2 2 2 2 2 2 2 2 2 2 2 2 2 2 2 2 2 2 2 2 2 2 2 2 2 2 2 2 2 2 2 2 2 2 2 2 2 21 21 21 21 21 21 21 21 21 21 21 21 21 21 21 21 21 21 21 21 21 21 21 21 21 21 21 21 21 21 21 21 21 21 21 21 21 21 21 21 21 21 21 21 21 21 21 21 21 22 22 22 22 22 22 22 22 22 22 22 22 22 22 22 22 22 22 22 22 22 22 22 22 22 22 22 22 22 22 22 22 22 22 22 22 22 22 22 22 22 22 22 22 22 22 22 22 22 123 123 123 123 123 123 123 123 123 123 123 123 123 123 123 123 123 123 123 123 123 123 123 123 123 123 123 123 123 123 123 123 123 123 123 123 123 123 123 123 123 123 123 123 123 123 123 123 123 0 0 0 0 0 0 0 0 0 0 0 0 0 0 0 0 0 0 0 0 0 0 0 0 0 0 0 0 0 0 0 0 0 0 0 0 0 0 0 0 0 0 0 0 0 0 0 0 0 8 8 8 8 8 8 8 8 8 8 8 8 8 8 8 8 8 8 8 8 8 8 8 8 8 8 8 8 8 8 8 8 8 8 8 8 8 8 8 8 8 8 8 8 8 8 8 8 8 81 81 81 81 81 81 81 81 81 81 81 81 81 81 81 81 81 81 81 81 81 81 81 81 81 81 81 81 81 81 81 81 81 81 81 81 81 81 81 81 81 81 81 81 81 81 81 81 81 82 82 82 82 82 82 82 82 82 82 82 82 82 82 82 82 82 82 82 82 82 82 82 82 82 82 82 82 82 82 82 82 82 82 82 82 82 82 82 82 82 82 82 82 82 82 82 82 82