# vtk DataFile Version 2.0
Really cool data
ASCII
DATASET POLYDATA
POINTS 540 float
317.0 256.0 72.0
314.4045191840248 256.0915105669589 71.99938222611583
312.36770289822545 256.7214013395949 72.03429184780138
311.12203190344786 256.99860819231964 73.20505096472368
310.42554779679375 256.99005140231174 75.210715597029
309.7418179221141 257.49461182562953 76.70897097481826
309.1182880658464 258.191011829098 78.08964611096732
309.0013579005613 258.8235232499375 80.0350118011595
308.9331018318287 259.2615244624151 82.21630198826446
308.3110969756574 259.91991782597347 83.6445959200769
307.9977944314118 260.61072130816297 85.32576617656083
307.71754167313304 261.5322267535105 86.81374811072344
307.0629739217895 262.4646540238127 87.92413814538816
305.99010630544933 263.00237094386193 89.00775513698969
305.0235718841389 263.9456757111499 89.79023601101585
305.233371798982 266.18554707083905 89.98797373337294
305.8700820095737 267.8385437583871 90.39342725435921
305.9987757337717 269.504689246852 91.29245228050073
306.0001100159384 270.99549672631923 92.49429567487572
305.99891001714394 272.48722779205167 93.69540158172094
305.874035948994 273.8086124685715 94.94397160079383
305.2383554726501 274.85316409770337 95.96282463435877
305.0018708648313 277.2661725380982 96.00092285444792
304.86198097579194 279.8190956779817 96.00226413994366
302.9564657903561 281.08734729535524 95.47688887644966
304.99999993459437 280.4036805527129 100.74498010258687
304.99999689000776 281.1476440707967 102.22297461207083
304.9999409679465 281.84853452826974 103.76395034052241
304.99946974720456 282.72086461968405 105.13681301596228
305.00805200805195 283.831561795869 106.26242681880477
305.45935035376004 284.759975770448 107.12761095710115
305.9545620904258 285.52631014654327 108.11093115767329
305.9909526111561 286.4439654754458 109.40148687175771
306.390397571375 287.5072022718021 110.17492828993616
306.904758465195 288.0412272027425 111.37967119836593
307.2702062762448 288.51946878384535 112.77523750523711
307.92966324444046 288.9839161706575 113.90448603117613
308.8049911740091 289.0002652718865 115.25593868945391
309.91857664729974 289.0000571753816 116.38748229938737
311.021153844308 289.0000036764143 117.52986248061715
312.1277763390046 289.00000012122825 118.66814189370012
313.3950975173447 288.99999999869357 119.6457188106352
314.83716328771874 288.9999999996016 120.44855099818184
316.31995431236044 288.9999999999732 121.21065792656773
317.86288391042075 288.99999999999926 121.91262621929323
319.2320194961353 289.0000000000001 122.7883888174046
320.3559900210572 289.0000000000002 123.9093494415081
321.6915981622007 289.0000000000003 124.8194322008526
323.1993669271528 289.0000000000001 125.56663173660257
324.63 289.0 126.37
330.1323354612503 292.55818267399667 122.00341356930821
335.38553781818456 293.0000577037802 123.00215957134067
339.56989634579134 293.00044575996685 125.51129054730372
343.11541353997046 294.08610862295785 127.57398804115442
346.1833864686873 295.7300542174877 129.55594706020995
348.67851600533646 297.18040029822413 132.30437955153147
350.3228067328778 298.8141578637197 135.72008031160863
352.015993526711 300.26150923508936 139.26721987270207
353.1999452384659 301.8970651778652 143.14790932952693
354.83884435982316 301.99999966117934 148.0999341750805
356.54354677328627 301.92012122231137 153.00922750793455
357.454071335847 300.0951691522726 156.96762842867963
358.1540658065689 297.7716368624068 160.63797921459513
359.00338424743444 294.8047778409009 163.5153316754303
360.0114107877726 291.9922648403112 166.3889911232833
359.9999885310786 288.17010174629416 169.27215403284234
360.32073581409975 284.32319103244606 171.7983735856937
360.99979226292584 280.50565828675235 173.99566194219398
361.00000001667865 276.5166129502673 176.70028640297662
360.9999999990995 272.7040079023319 179.5815589237485
361.0000156378518 269.20827978540603 182.77969085298028
361.2038384540941 265.42305415481025 185.47584426460892
362.0000563956742 263.23697807544085 189.1961052237755
361.99999994328135 260.03866838659354 192.69172966793238
362.0000000000081 258.0958606172989 197.442799392801
362.00000000010766 256.14260546474804 202.18342179138625
362.0000039104291 256.00000898302306 208.73470677100306
361.9524273599018 255.99999999833824 215.3809987868113
360.59863729899604 256.0000000000003 220.721086278588
359.8856839361966 255.99999999999858 226.7020104668074
358.24789783383955 256.0000000205986 231.75810193545954
356.79953621286205 255.999912154454 237.00353260730304
355.6532933352626 255.39570761445742 241.9453260847883
353.9879013933066 254.4019327586769 245.98166562099576
352.9611527055654 252.5540524536126 249.80091973518063
352.00142674199736 250.01150791264712 252.9926847930692
350.7095596282232 247.49949409177438 255.8825277275339
349.77496632540635 244.62791138182564 258.77022464530916
349.0000711418619 241.97796447196282 262.0392601036206
349.0000000396632 238.8934548140597 265.6485568945391
348.99999999998505 235.5337252732065 268.98270486504214
349.00000002187915 232.70364774271275 272.8465048643905
349.0001558826404 230.0658003705234 276.9023841658459
349.7528708286948 228.42842389383924 281.2073897155291
349.9999864632138 226.0855289679602 285.31003218469044
349.99999999672707 224.16666625749005 290.08503360284084
350.000059033621 223.22960242102673 295.8419063456176
349.5513999437917 222.9998702794799 301.8574359950786
348.63 222.37 307.0
350.012925794606 228.52511867573062 308.9910988574817
349.9999777568773 230.19003320034884 310.7486375343185
350.0024664789451 232.01580181433656 312.38959395624386
350.3402400138566 233.94129357537403 313.5948460869376
351.04754538522457 235.3676660617345 314.9316378410872
351.8035430778443 236.5900031039839 316.43183424653785
352.9070906248379 237.4333570097511 317.9464738129745
353.97583670466855 238.67741625608517 319.1016001600291
354.03011399169316 240.4789747129964 320.6892037020415
358.18464718486973 239.82100608841037 320.7470643321019
360.4796248620615 240.68364679571977 321.0003410071081
362.58927199458526 242.04338125609593 320.9999928690934
364.27276569348334 243.82928645902376 320.99998829094966
366.04072966748646 245.52754445358326 321.00325144739725
367.1611134815853 247.48660629447298 321.3831323243996
368.1872403948647 248.56384825820612 322.7592057856094
369.76946978277863 250.2116514416552 322.9984705495105
370.9201891600654 251.54840446877387 323.9803859534927
371.60486425723303 252.9705831324924 325.3429199572414
372.70904805291383 254.43789970201888 326.2408073471097
373.70714695368815 256.1619594434695 326.9880364599863
375.82591502832065 257.50083354579306 326.99978203816283
377.5489126709532 259.2470042444446 327.00000144998313
378.8960576927734 261.3692796167984 326.9999685641162
380.26879802133004 263.4630675956164 327.00285080536224
381.68381336390695 265.0989878904596 327.4232530827509
382.5438420725681 266.83837198901506 328.28780263938756
382.998011089885 268.29725932817274 329.847573257735
382.99982573433743 270.04621311122906 331.565766400605
382.9937509962086 271.8219425415174 333.2534408550115
382.23950602138547 273.19945858301276 334.591067856669
381.62342703030845 274.7905104876075 335.8533247056514
380.18900954962436 276.1912211668346 336.48758476452844
379.01638222157186 277.3551510111089 337.6204090407329
378.01925155366047 279.2079078360853 338.2348763700203
376.8252706959224 280.6074029099299 339.1150786671051
375.99363179825747 281.499974235227 340.86161285287665
375.0784749022737 282.93823039939093 341.97983445340583
373.99220301538753 284.11407767517426 343.1825934550725
374.0000694711969 285.66160421663074 345.1139880456784
374.0001084446691 287.32092367012996 346.9238682718216
373.98907137473003 288.6592521460148 349.0658757140122
374.67039537965957 289.8992642054141 350.623832119143
375.538415391916 290.86721685332594 352.24831131520966
375.99563669953255 292.28513374752856 353.84168243129847
376.5244294560726 293.8528858524285 355.2144900827208
376.9986841843613 295.2522913794201 356.8096057029469
376.739770954964 296.75062778259905 358.5165046242456
376.0 297.78 360.22
348.0037198531412 221.75003196740977 310.2834846797629
347.6158821934019 220.1344330061818 312.8115401271662
346.23641730925476 218.7797599707065 314.60801402028284
346.000125295029 215.88447896806338 316.00705324266823
346.00081822147814 211.3461642118874 316.00004364887604
345.58337733281536 207.23302500379046 316.00007812660846
345.01261513961464 203.36713635360698 316.09524144119575
344.10829838361695 200.65826735647033 317.0103312889971
343.1929135153634 197.1381420839264 317.1065629088084
342.26672587973553 194.43838948395398 318.01123782142145
341.0137048366817 191.26766365022513 318.11810318016154
340.99994189334154 187.67296148602455 319.0402507970095
340.99996838180164 185.2702769190756 321.16826761102465
341.0502027675681 182.58651231992727 322.9648805959407
342.6173478950641 181.01643992710586 324.35825575074404
344.23791136311587 179.94413357767294 326.18768960795154
345.7906738258438 178.14448176264494 327.3743602040492
348.7264727104718 178.00014985826368 328.82467225966735
351.262405041777 177.9983471769259 330.8208802533496
353.56297442867395 178.77349429174942 332.2757761758025
355.1864222663243 179.66154069954513 334.2948941769779
356.29917973688595 180.77264632087426 336.60164332110577
357.41951573815305 181.88486287029116 338.89970563154395
358.0973381943261 182.78547793284525 341.8530496442272
359.0105929102452 183.8948727288522 344.35866858957985
359.0025175180076 184.91926640267673 347.8741318613122
359.70755858882285 186.2271180828956 350.3918411068334
359.99940756026814 187.3318432574639 353.5234419197242
360.5624587939283 189.9223719974019 355.0345423755524
355.62910673557894 188.96444350125893 356.6157472216093
353.0047889083337 188.52383962080077 357.9779968967553
351.3779302510495 187.15416108285564 359.52167417083297
349.56503989396276 187.00014333553452 362.07552283490696
347.761306701207 187.002941338154 364.7991815481044
[...]
POINT_DATA 540
SCALARS Labels int 1
LOOKUP_TABLE default
121 121 121 121 121 121 121 121 121 121 121 121 121 121 121 121 121 121 121 121 121 121 121 121 121 121 121 121 121 121 121 121 121 121 121 121 121 121 121 121 121 121 121 121 121 121 121 121 121 121 2 2 2 2 2 2 2 2 2 2 2 2 2 2 2 2 2 2 2 2 2 2 2 2 2 2 2 2 2 2 2 2 2 2 2 2 2 2 2 2 2 2 2 2 2 2 2 2 2 21 21 21 21 21 21 21 21 21 21 21 21 21 21 21 21 21 21 21 21 21 21 21 21 21 21 21 21 21 21 21 21 21 21 21 21 21 21 21 21 21 21 21 21 21 21 21 21 21 22 22 22 22 22 22 22 22 22 22 22 22 22 22 22 22 22 22 22 22 22 22 22 22 22 22 22 22 22 22 22 22 22 22 22 22 22 22 22 22 22 22 22 22 22 22 22 22 22 122 122 122 122 122 122 122 122 122 122 122 122 122 122 122 122 122 122 122 122 122 122 122 122 122 122 122 122 122 122 122 122 122 122 122 122 122 122 122 122 122 122 122 122 122 122 122 122 122 123 123 123 123 123 123 123 123 123 123 123 123 123 123 123 123 123 123 123 123 123 123 123 123 123 123 123 123 123 123 123 123 123 123 123 123 123 123 123 123 123 123 123 123 123 123 123 123 123 1 1 1 1 1 1 1 1 1 1 1 1 1 1 1 1 1 1 1 1 1 1 1 1 1 1 1 1 1 1 1 1 1 1 1 1 1 1 1 1 1 1 1 1 1 1 1 1 1 0 0 0 0 0 0 0 0 0 0 0 0 0 0 0 0 0 0 0 0 0 0 0 0 0 0 0 0 0 0 0 0 0 0 0 0 0 0 0 0 0 0 0 0 0 0 0 0 0 8 8 8 8 8 8 8 8 8 8 8 8 8 8 8 8 8 8 8 8 8 8 8 8 8 8 8 8 8 8 8 8 8 8 8 8 8 8 8 8 8 8 8 8 8 8 8 8 8 81 81 81 81 81 81 81 81 81 81 81 81 81 81 81 81 81 81 81 81 81 81 81 81 81 81 81 81 81 81 81 81 81 81 81 81 81 81 81 81 81 81 81 81 81 81 81 81 81 82 82 82 82 82 82 82 82 82 82 82 82 82 82 82 82 82 82 82 82 82 82 82 82 82 82 82 82 82 82 82 82 82 82 82 82 82 82 82 82 82 82 82 82 82 82 82 82 82