# vtk DataFile Version 2.0
Really cool data
ASCII
DATASET POLYDATA
POINTS 540 float
302.0 202.0 40.0
302.64953736980164 197.61472609585405 44.026854919134315
305.39661477772535 197.00000139237864 49.72582792692264
308.0186001839238 197.8614736492681 55.30311462688372
309.00278739987414 199.68990322538755 61.552206884011845
308.9924867928789 203.40601404380308 66.90733617411924
309.99917634609415 207.4678840945665 70.90027757134588
310.9969663389775 209.77802899427653 76.65357609538043
311.0000000206009 212.95375265677131 82.53604324099561
310.99999999428076 216.2002956590399 88.35072474270879
311.0008222922051 220.48860612316463 93.12456107544165
310.0020116332089 224.66833058942416 97.00740469313844
310.10994638796444 233.4226323308105 96.14519784707892
307.31302900471 233.09320600747154 100.46762559575915
307.00229622241983 234.77111594663737 102.79666826290021
307.59872136646504 235.00170084595007 106.29735282548705
309.0896561966996 235.67897027922828 108.45554991596374
310.0768217950426 236.75719520689702 110.71697792775979
311.1160382977885 237.3402653654928 113.41176538109508
312.0106651985228 238.01582393723237 116.17786867107283
312.570849280371 238.94639041582906 119.0133488372115
314.31454200041367 239.12196717722645 121.41104700276095
316.31738913889484 240.0087427558645 122.857521620557
318.50293150312143 240.00005436798426 125.0072774100615
319.98894129990254 240.00000009445444 127.85642918378551
320.29618220021985 239.99546015766092 129.73249696286243
321.25362381356354 239.96357727249523 128.9704919812555
322.62668840319185 239.91114757234303 127.90142026875053
323.85000000000025 239.85000000000014 127.0000000000001
324.4944002391653 239.78944196788507 126.62388747617626
324.6756011729914 239.7286947669091 126.66249150452752
324.64553245806354 239.6644581576068 126.88815901882187
324.6496189281034 239.59361670270516 127.07918913180444
324.7836744909478 239.51730541536938 127.15078107269812
324.9939021285505 239.44090975920238 127.15503418720392
325.22 239.37000000000006 127.15000000000008
325.41366130080644 239.30792044451897 127.18143005369211
325.57455937216133 239.24911156335727 127.245875962595
325.7143625916777 239.18578786807478 127.32758935895123
325.84451777864825 239.11050895717767 127.41116545965696
325.9713759110163 239.02377142897217 127.48910192864514
326.0961921253755 238.93400888156222 127.56179887688512
326.22000000000025 238.85000000000008 127.63000000000012
326.34312619369786 238.77450547986786 127.69458808600743
326.46306968741294 238.6862140588679 127.75700229250072
326.57662254262266 238.55779648523304 127.81882086946779
326.68042297588426 238.36412094267956 127.88135470864019
326.7675707705668 238.13059663105577 127.93976546186038
326.82762727685184 237.9331737663413 127.98306554108139
326.85 237.85 128.0
328.0290688561266 230.43739330780005 127.00017462534298
329.01592959671166 224.9077140951004 128.07355110246775
330.0003640084012 221.64320763030724 131.41830955587838
330.00000002068555 218.62082663647655 135.98817355191105
330.00000353396143 215.01582489870503 139.97500503821288
330.5135608147297 212.16697345668467 144.20443305011844
330.996917174597 209.14953249733267 148.2954724655931
331.9877894077191 206.36532317432625 152.11222764417323
333.2174442054098 203.24656583841542 155.3556526443925
333.99869577329014 198.57105714428872 157.48818398750032
333.0015746592596 197.06760180365237 162.58115846001317
330.1746016846035 193.19490025784162 163.45176202144256
329.2131410978106 190.35619022722446 167.26405144615214
327.9891143362473 187.2750488270131 170.54987756116515
327.659921647533 184.05352853747632 174.59021485711693
326.25767344269593 179.26996940219277 175.9970329634161
324.61574920307856 173.32180858571147 176.00121766816656
323.0357341048631 168.93317853288818 174.37805227684075
322.102739418191 165.1194572809141 171.53281774947175
321.99999868442194 161.4345042149298 167.72876241857904
322.0001846206732 159.22176695879085 162.3498682629738
322.85405379875465 156.62402526107743 158.2096089460766
323.77063315588265 154.0562740556696 154.09759933598494
324.8896601177592 151.97170676935124 149.7149351434562
324.42174355326046 150.99967260651547 143.7826687987899
322.56276559322 151.00000227184006 138.04947693619206
318.78831797855815 150.85552052887485 134.37671659197272
315.4728226349802 148.73000699425037 132.22576224717744
310.5182030831059 147.99995822047964 130.3185733906809
304.5462143312907 148.0000010219689 128.69868463610192
299.6224181543125 148.03614767536132 126.06655432564516
296.2458330781094 149.8379421937242 123.65336727065005
292.419279641717 151.2067055496119 121.25714174954928
288.1527965852078 152.4009192152615 119.12567364779979
282.250367054827 153.003152325409 118.0388494736772
277.8483853562341 155.11971653798253 117.02978368167854
273.1042736014683 157.00207745139807 118.00014393524543
266.2576168389631 156.75904189843615 117.4996828817618
263.60660096103965 154.18284195502906 115.12892481712863
259.3230932051032 151.9813089770144 113.99945775929403
253.6339681993859 153.8997571158099 113.99956487326979
249.46228575346484 156.33838009928903 114.98070815743434
244.48502617444322 157.9332071566334 116.0007985667628
237.11753902137264 157.99998494703087 116.1583408016795
232.2341027477108 157.14148702622336 118.00824344640348
226.7672462942117 154.99771500103014 117.99964311416473
222.07894959386059 156.58226720061552 119.31196548158722
218.03554230080044 157.00015277923225 122.4435410909416
213.0 158.0 124.0
326.8509613341382 237.85415345646805 128.0014173516138
326.8537922974274 237.86638466965314 128.0055912077452
326.85841333118015 237.8863499052267 128.01240427032965
326.86474487670984 237.91370542886057 128.02173924130264
326.8727073753285 237.94810750622634 128.03347882259953
326.8822212683494 237.98921240299546 128.0475057161558
326.89320699708475 238.03667638483975 128.06370262390683
326.9055850028475 238.0901557174308 128.08195224778805
326.9192757269506 238.1493066664402 128.10213728973483
326.9341996107066 238.21378549753936 128.1241404516827
326.95027709542796 238.2832484764003 128.14784443556695
326.96742862242775 238.3573518686943 128.17313194332306
326.98557463301864 238.43575194009316 128.19988567688654
327.00463556851344 238.51810495626836 128.2279883381925
327.0245318702241 238.60406718289164 128.25732262917674
327.04518397946447 238.69329488563451 128.28777125177444
327.06651233754644 238.7854443301687 128.31921690792115
327.0884373857832 238.88017178216563 128.3515422995522
327.1108795654873 238.97713350729722 128.38463012860296
327.13375931797145 239.07598577123485 128.418363097009
327.1569970845482 239.17638483965032 128.4526239067057
327.1805133065304 239.27798697821495 128.48729525962833
327.20422842523124 239.3804484526007 128.52225985771244
327.22806288196256 239.4834255284789 128.5574004028935
327.25193711803774 239.5865744715214 128.5925995971068
327.2757715747691 239.68955154739953 128.62774014228782
327.2994866934695 239.79201302178524 128.66270474037196
327.3230029154522 239.89361516035 128.69737609329462
327.34624068202896 239.9940142287653 128.73163690299128
327.36912043451287 240.09286649270317 128.76536987139727
327.391562614217 240.1898282178345 128.79845770044804
327.4134876624535 240.2845556698315 128.83078309207914
327.4348160205358 240.37670511436565 128.86222874822576
327.4554681297761 240.4659328171086 128.8926773708235
327.4753644314872 240.55189504373192 128.92201166180772
327.49442536698155 240.63424805990704 128.95011432311375
327.51257137757244 240.7126481313059 128.9768680566772
327.52972290457234 240.78675152359995 129.0021555644334
327.54580038929385 240.85621450246086 129.02585954831764
327.5607242730497 240.9206933335601 129.04786271026538
327.57441499715276 240.97984428256945 129.06804775221227
327.5867930029157 241.03332361516047 129.0862973760934
327.59777873165115 241.08078759700481 129.10249428384444
327.60729262467197 241.121892493774 129.11652117740073
327.61525512329047 241.1562945711397 129.12826075869756
327.62158666882004 241.1836500947735 129.13759572967058
327.62620770257314 241.20361533034722 129.14440879225506
327.62903866586225 241.21584654353222 129.14858264838642
327.63 241.22 129.15
330.4905244693504 231.0002197999917 130.9995158547801
336.3639009288322 230.99999999728868 137.61569091061682
339.92722105069055 231.5456667490179 145.99641203831757
342.61961053504456 235.14052330735768 152.1991435698237
344.050669761805 240.495870792314 157.9023538504599
344.99973425029737 246.19038862769716 163.7486532560886
346.92974612502996 250.51615091756014 169.98268328643468
345.64838240124436 253.99501451565365 177.57155192611472
344.9999998365972 254.95537173115184 188.3635268738701
345.82957721070517 252.99903596700116 198.06741793996954
346.22959042157123 250.98842340265287 208.14658808498743
347.34011260040694 248.40121966005097 216.9367006308399
347.99999991965916 244.57393314218183 224.94128016118034
348.0073888774956 236.95598511090245 229.82049716035212
345.06783200591246 229.50192978140217 228.08362092949832
340.41623782627255 224.0800795089455 230.3315295833879
336.5347783040747 218.84337585637073 233.70837564716945
334.9997532876273 209.28221092973538 232.90170427470355
333.55162314759906 200.17302629223553 231.0306548250906
331.88912557116146 193.44804734352311 235.13336673074392
328.05559243370965 188.34813579149662 238.69887016564505
324.08737175539153 182.70430179360275 236.43281604208497
319.96434676555 181.56208684526138 229.2082602668395
317.43259248766884 178.10474853763046 222.70877693638704
315.5676287384602 170.1977822726408 219.98985323896218
315.0000000432239 165.66022346382593 226.07442302753338
315.00000000000034 170.87662634861587 233.34790299848942
315.00000029039035 167.46581315193984 237.81971215916553
314.0920720449056 162.58345807305034 234.87968765113547
312.0105966654778 156.73612816280297 232.5593992064262
309.80417162960896 152.69981796868106 226.3122164835865
307.4652033994199 147.70308873386915 221.16191379931016
[...]
POINT_DATA 540
SCALARS Labels int 1
LOOKUP_TABLE default
121 121 121 121 121 121 121 121 121 121 121 121 121 121 121 121 121 121 121 121 121 121 121 121 121 121 121 121 121 121 121 121 121 121 121 121 121 121 121 121 121 121 121 121 121 121 121 121 121 121 1 1 1 1 1 1 1 1 1 1 1 1 1 1 1 1 1 1 1 1 1 1 1 1 1 1 1 1 1 1 1 1 1 1 1 1 1 1 1 1 1 1 1 1 1 1 1 1 1 122 122 122 122 122 122 122 122 122 122 122 122 122 122 122 122 122 122 122 122 122 122 122 122 122 122 122 122 122 122 122 122 122 122 122 122 122 122 122 122 122 122 122 122 122 122 122 122 122 0 0 0 0 0 0 0 0 0 0 0 0 0 0 0 0 0 0 0 0 0 0 0 0 0 0 0 0 0 0 0 0 0 0 0 0 0 0 0 0 0 0 0 0 0 0 0 0 0 123 123 123 123 123 123 123 123 123 123 123 123 123 123 123 123 123 123 123 123 123 123 123 123 123 123 123 123 123 123 123 123 123 123 123 123 123 123 123 123 123 123 123 123 123 123 123 123 123 8 8 8 8 8 8 8 8 8 8 8 8 8 8 8 8 8 8 8 8 8 8 8 8 8 8 8 8 8 8 8 8 8 8 8 8 8 8 8 8 8 8 8 8 8 8 8 8 8 81 81 81 81 81 81 81 81 81 81 81 81 81 81 81 81 81 81 81 81 81 81 81 81 81 81 81 81 81 81 81 81 81 81 81 81 81 81 81 81 81 81 81 81 81 81 81 81 81 82 82 82 82 82 82 82 82 82 82 82 82 82 82 82 82 82 82 82 82 82 82 82 82 82 82 82 82 82 82 82 82 82 82 82 82 82 82 82 82 82 82 82 82 82 82 82 82 82 2 2 2 2 2 2 2 2 2 2 2 2 2 2 2 2 2 2 2 2 2 2 2 2 2 2 2 2 2 2 2 2 2 2 2 2 2 2 2 2 2 2 2 2 2 2 2 2 2 21 21 21 21 21 21 21 21 21 21 21 21 21 21 21 21 21 21 21 21 21 21 21 21 21 21 21 21 21 21 21 21 21 21 21 21 21 21 21 21 21 21 21 21 21 21 21 21 21 22 22 22 22 22 22 22 22 22 22 22 22 22 22 22 22 22 22 22 22 22 22 22 22 22 22 22 22 22 22 22 22 22 22 22 22 22 22 22 22 22 22 22 22 22 22 22 22 22