# vtk DataFile Version 2.0
Really cool data
ASCII
DATASET POLYDATA
POINTS 540 float
186.0 276.0 57.0
186.00306267047662 278.05515124872244 60.57461147566233
186.8949670124477 280.4742894549692 62.896049735319956
187.98625432882045 282.73607222882833 65.17563262600291
189.0729811925828 285.0133170847662 67.44431396759315
190.6811700404526 287.06628643417 69.415808869912
192.57320429307285 288.91815402955973 71.3044874534854
194.30112901622644 290.480565056474 73.64508546914658
196.6488444176425 292.0245573659171 75.38785149690742
198.54964910808877 293.87755970950883 77.26702364380368
201.8393764506044 295.4530528284499 78.03400475387652
204.9738127506533 296.84192635561 79.14344457650132
208.04167497260738 297.0000477877252 81.55011397440148
211.3469247238935 297.0000000186083 83.8775650530243
214.4585207753376 297.00000019623695 86.39862229979418
216.5419140871705 297.00075715459275 89.94872284653196
219.58769813480217 296.3400636972168 91.88429057383571
222.87659946337635 295.68614991858146 93.56202132941917
224.4583509117481 294.0344950833182 95.96382177908957
226.0027319939219 292.6251737548158 98.64289234088827
227.28346828975538 291.2203391664959 101.58993174937808
229.8716210841413 290.9672217832162 104.38131491256316
228.34819297540156 287.1625037187674 107.7327158528719
229.92993927963204 286.22600863608034 110.85211630035056
230.188157767373 284.5698875205629 114.56040576252337
234.6533785374132 286.1905639241782 116.33286108477265
236.12848326618266 286.0021842312265 118.2004626083739
236.9902535613655 285.9999905265569 120.8872917489574
237.00046214995382 286.00004925013684 124.42951010132616
236.85414185633684 285.9996445302885 127.83337713082602
235.7933134976736 285.49186213614 129.81447370543805
234.99534282406054 285.00127231700736 132.078399706485
235.000162741014 284.9999724824463 135.63275196547477
235.00028702839688 285.001088866648 139.18290346079968
234.9017911126991 285.30647517419305 142.32167056068937
233.88765975280842 286.0108725766126 144.16129722828975
232.89341925671636 285.9999313862948 146.7302301617004
231.6070214081099 285.99999559810453 148.99478094091356
231.00241901415885 286.0000711531093 151.94112548253207
230.2664910260087 286.0569876561844 154.70046744004566
229.35953392729905 286.8580942077696 156.55213843100856
228.72537702740536 286.98924715881697 159.3279194570585
227.5865060600009 287.6645578105451 161.06620271382172
226.9930944537003 288.08887881883027 163.59831830943926
226.99994830644107 289.09835541340783 166.14649253733444
227.0000007090021 290.3020267522748 168.49389231079016
227.0000439775167 291.2237330226271 171.12324992874227
226.99836124202835 292.72003254438357 173.17628048248366
226.46338856722113 294.90745836675666 174.00241096749107
225.15 296.0 175.15
228.91143305587593 296.638934661376 174.27265355646898
231.1437053847904 297.02232437828195 173.8635475672735
231.1194838001028 297.02020824538215 174.04146160798157
231.95653485990533 297.17088073690957 173.99436108836903
232.55277636650328 297.33630596642934 173.99741313023804
233.03140232373596 297.61194405316417 174.00233901857274
233.41363837207976 298.01928500922537 173.9984568669691
233.70383649805842 298.4981317170188 174.0014946921813
233.99206243903024 298.9871138951006 174.00039017706783
234.29009941203964 299.47614482296717 173.98895703124774
234.5070580955304 299.95680306456177 174.0667021561714
234.73239069939214 300.3689806465179 174.20476519576874
235.03098534649484 300.653422119669 174.39722365256617
235.31560763641494 300.8235040037355 174.71803057826975
235.6273903918914 300.95958939318194 175.0456716520753
235.94714693416944 301.0119982310579 175.44902502404145
236.32000478435873 300.9975319532266 175.86612493950562
236.75939353773285 300.99977522359063 176.2000074579797
237.10010253040414 301.00051254628784 176.63419391215666
237.49520620209404 300.99957898084824 177.01498042082133
237.93951720604187 301.0005298507194 177.34666126172814
238.41303155302577 300.99967014052766 177.6478378766742
239.021463461632 300.9978236577301 177.81286476877568
239.59185038481164 301.01145648604626 178.0331126593229
240.1004091087764 300.95831893948065 178.24143649726332
240.56075821345027 300.8171601831575 178.4097746727003
240.96776987002522 300.64507080589664 178.61509346989502
241.38284744450257 300.4432608024306 178.78396807484265
241.76382550826295 300.2560181857813 178.98778022687168
242.12682751190806 300.09897271967395 179.23627944862548
242.48756951032232 299.99744141568533 179.55076416372802
242.7859632941274 299.995935427963 180.02641928582537
243.04244053352346 300.00247123891575 180.55179412321363
243.2243424514785 299.9991782262463 181.14220703791415
243.41743208638616 300.00014209486017 181.7255630213418
243.7443476594966 300.0000318393174 182.17405071632567
244.07422293982975 299.9999637062137 182.61961822108094
244.48122259412966 300.0000152113549 182.98818396824697
244.90025948421558 299.99999621609567 183.34462660199932
245.22836412155067 300.0000001315583 183.79204626241977
245.54857515449498 300.0000004528722 184.24739478672348
245.8450961267113 299.9999997450056 184.72610006336924
246.12580830727 300.00000008107145 185.22174011957134
246.41745256642923 299.9999999874285 185.7042571908158
246.73549621657114 299.99999999596616 186.1608318996456
247.08121515216246 300.0000000038314 186.60426886400387
247.39550055365333 299.9999999984939 187.01392887786346
247.74281914052247 300.0000000003099 187.55692930619583
248.0 300.0 188.0
255.64409064102696 294.434894760031 184.8620745426904
254.9995270172032 287.5461342321174 183.35181407508517
254.98280674259382 278.8335083440953 183.99998729431877
251.90334440241548 272.2845903709245 183.56783206966435
250.2665017245513 265.4281717736797 181.99920392141087
247.37117554684784 258.3004433953708 181.96103411900606
246.99999978908033 250.568379487527 180.00304930532366
247.00020289870068 240.51322908566524 180.002822116443
247.99733981885046 233.20340473151 181.75709360249226
247.22963220658318 224.1581231206055 182.00000023417
244.73033542590468 216.59619636744432 182.00000118134136
241.0250829491686 210.8928853484724 182.65277893660664
242.9239171448562 209.99999818208238 189.8719994687181
245.94197927352516 209.99999999999767 196.91516358361585
248.96780066026747 209.99999996664835 203.95056665332012
251.62481547984754 209.85411340771597 211.2088897646033
252.85807916095223 206.61651103095411 216.79924819954735
253.0021266633302 201.29770119664929 221.40187005915914
250.30733040468462 195.52700023184653 222.99807875424747
246.11593141047427 192.00293692280314 220.65664186082427
241.6531100027808 190.97124118988623 216.08993452161917
238.9528391401825 190.00005680539826 209.70016527936062
237.99754443460796 188.99781192631508 201.59675408530845
236.94640458867698 187.99998432957 193.58422961438433
235.9971203099942 185.04185015189194 187.43041944208446
233.71667025747448 179.22122838777665 186.52358770412155
230.7625081049279 174.4482730510477 188.8639731883172
226.082233200958 172.00188438522613 188.20157893024106
218.33982377876103 171.99981173854934 185.88485427874264
214.17781199810057 170.6785804264509 181.30694241694343
211.00794662782573 165.22413307690317 180.13004441773202
211.617237219597 158.6549042140792 182.9968502875587
214.37434317836212 152.35522016793163 184.0013287499691
215.99331982877092 145.74431423752483 182.18052539026365
212.71815279115086 147.6843577113704 178.8232545085692
209.00385640163546 150.59253551980413 179.77822860269853
210.89487184684083 146.06819590115956 183.4386549014473
212.99703684403937 139.37806650747567 184.70756459516235
212.25743523354868 131.0667229953408 184.27923371477473
205.7865774934308 132.25369874700374 182.0264077145354
201.1802397821136 130.81226014652938 180.50262009529303
199.9997992767001 123.94602852027768 182.5172539921174
198.14350804835368 117.75720994937024 183.46571100453127
192.95897361088686 115.35471098106706 180.99247089806252
191.00270867494913 108.89505409889945 182.64738570746562
192.00849555299334 103.16046191968931 185.9851608356802
189.06738204246437 98.04567584157579 187.99178011322667
184.16119046581792 93.90096990390415 188.99898571753405
179.0 90.0 188.0
249.22788967754704 300.002249024768 191.13633228248784
250.90137530278895 300.5613328279631 193.2719525563708
252.1849978173672 301.3960861309191 195.51212534791046
254.00535015434764 301.99705315103927 197.4668648176587
255.57694540919434 301.9999950816719 200.25979400334427
256.8720390174624 302.0000000171065 203.33204259880438
258.8084387720453 301.9999996991432 205.7629901002446
260.7531686573497 301.999980928616 208.1856259242392
262.4599744845326 302.03058948403896 210.8155584804084
263.27941091548564 302.969783824928 213.42427464734186
265.0154694679518 303.6393035776169 215.38604328096224
266.2476056588423 304.7267699009425 217.43378770537154
267.5804745978627 305.0003160432818 220.1947195318623
268.66611489984473 305.0117488287569 223.4650004685989
269.5034182131086 306.264284375471 225.74863855400773
269.9927174612816 308.33477431653347 227.5500521939691
270.89726537293313 309.68215015783505 229.6743410946955
270.999830239507 311.28005727682756 232.3323776286546
270.9999998306165 313.2095078440368 234.77008390449825
271.00057216454076 315.1754957194816 237.17201034248623
270.69828450126823 317.5371902585917 238.87408926275026
269.995014130373 319.0378281637894 241.03803550810832
269.06690394790854 321.0185585693306 242.49747495658409
269.00650712210097 324.83321667099483 242.99893474203031
268.0040248752014 325.80746368796287 251.1357882824334
267.00234231085034 335.00552669609374 256.8081980489201
269.7883670848264 343.80770168888995 261.0977851188272
271.99742768095604 353.7420452994155 264.8319555628151
272.0000515146937 363.4737849025776 270.97524631090823
268.6404395694361 367.99983647178476 278.9671437877247
264.98100796956595 365.1342405533779 288.3193126531506
263.0000065611634 357.5685420764554 294.6501810250748
263.0000000000004 345.39759988839415 298.3567835618636
[...]
POINT_DATA 540
SCALARS Labels int 1
LOOKUP_TABLE default
121 121 121 121 121 121 121 121 121 121 121 121 121 121 121 121 121 121 121 121 121 121 121 121 121 121 121 121 121 121 121 121 121 121 121 121 121 121 121 121 121 121 121 121 121 121 121 121 121 121 122 122 122 122 122 122 122 122 122 122 122 122 122 122 122 122 122 122 122 122 122 122 122 122 122 122 122 122 122 122 122 122 122 122 122 122 122 122 122 122 122 122 122 122 122 122 122 122 122 1 1 1 1 1 1 1 1 1 1 1 1 1 1 1 1 1 1 1 1 1 1 1 1 1 1 1 1 1 1 1 1 1 1 1 1 1 1 1 1 1 1 1 1 1 1 1 1 1 0 0 0 0 0 0 0 0 0 0 0 0 0 0 0 0 0 0 0 0 0 0 0 0 0 0 0 0 0 0 0 0 0 0 0 0 0 0 0 0 0 0 0 0 0 0 0 0 0 124 124 124 124 124 124 124 124 124 124 124 124 124 124 124 124 124 124 124 124 124 124 124 124 124 124 124 124 124 124 124 124 124 124 124 124 124 124 124 124 124 124 124 124 124 124 124 124 124 8 8 8 8 8 8 8 8 8 8 8 8 8 8 8 8 8 8 8 8 8 8 8 8 8 8 8 8 8 8 8 8 8 8 8 8 8 8 8 8 8 8 8 8 8 8 8 8 8 81 81 81 81 81 81 81 81 81 81 81 81 81 81 81 81 81 81 81 81 81 81 81 81 81 81 81 81 81 81 81 81 81 81 81 81 81 81 81 81 81 81 81 81 81 81 81 81 81 82 82 82 82 82 82 82 82 82 82 82 82 82 82 82 82 82 82 82 82 82 82 82 82 82 82 82 82 82 82 82 82 82 82 82 82 82 82 82 82 82 82 82 82 82 82 82 82 82 2 2 2 2 2 2 2 2 2 2 2 2 2 2 2 2 2 2 2 2 2 2 2 2 2 2 2 2 2 2 2 2 2 2 2 2 2 2 2 2 2 2 2 2 2 2 2 2 2 21 21 21 21 21 21 21 21 21 21 21 21 21 21 21 21 21 21 21 21 21 21 21 21 21 21 21 21 21 21 21 21 21 21 21 21 21 21 21 21 21 21 21 21 21 21 21 21 21 22 22 22 22 22 22 22 22 22 22 22 22 22 22 22 22 22 22 22 22 22 22 22 22 22 22 22 22 22 22 22 22 22 22 22 22 22 22 22 22 22 22 22 22 22 22 22 22 22