# vtk DataFile Version 2.0
Really cool data
ASCII
DATASET POLYDATA
POINTS 540 float
297.0 195.0 82.0
297.55673895344404 193.0041303433382 85.15595553948796
297.9997327250399 193.9766930246247 89.45214730092385
298.1786864580616 195.6636044860689 93.30056619911865
298.9991766151522 196.82319662052558 97.03476962146517
299.00001469186583 198.2221538715337 101.34926000802915
299.02798707151317 199.44355553345756 105.81417168019188
300.00000000000017 200.63000000000008 109.37000000000018
301.66138357401314 201.00106672306714 113.0536255458534
303.5787538476819 201.4885135069518 115.5800306328365
304.28419400230933 203.99469029434078 118.86384097501814
305.3280379320874 204.98756533717435 122.54153966380976
307.2686257134911 205.7616629378221 125.54114054197895
309.6718006361272 205.9954488303982 128.61943815319958
311.6300000000001 207.8500000000001 130.53000000000017
312.96877268917433 208.94522123583283 133.79719566171792
311.5892074566845 212.97771010862843 134.03895696767592
311.00014772204287 214.0124761671098 138.13054566144987
311.00795449219254 215.00307258556563 142.86202475402962
308.9592153181339 214.99994190007897 146.5307020207813
307.99915970953714 215.20293668750864 151.08198631900174
308.0 218.85000000000014 152.85000000000016
307.9734065378841 221.0665269123943 156.93532635664147
308.73299880934445 223.24108929205838 159.45465382527848
310.058838246094 225.41199372756157 161.67530026637294
311.3340277512682 226.60009639451923 162.9598155857726
311.79922681005996 227.3884730820016 163.57040656818327
312.08162694986936 228.56517862083794 163.94457910222798
312.47219463828515 229.71190735157433 164.23732016227086
313.1049174029364 230.44562556907266 164.71369002390753
313.65344705927413 230.8683206745369 165.59004359548715
313.99553785790806 231.1388127514071 166.80428116399182
313.9988525356456 231.56262563417138 168.21398883070987
314.0028429900639 232.22576120898557 169.38363529961848
314.049952523946 232.97759970061745 170.42142687580085
314.4366673157243 233.7387515004112 171.11029543528866
315.0484015125449 234.41855506603787 171.65549239951727
315.6212671830296 235.19906260139769 172.13885388908997
316.09172104904843 236.13668566224734 172.56751165607193
316.5217789226623 236.8674457135025 173.24342842507136
317.1861746034959 237.55674010663313 173.72647304508124
317.7306303437869 238.35040116868177 174.22509093753916
318.4141692376611 239.05170703479214 174.67698087665215
318.84453935307863 239.77118658931477 175.36386588427507
319.33182535092624 240.55900831078574 175.92549194490394
319.8630740993266 241.25299912850755 176.53697123464062
320.4974816927927 241.80080769114417 177.19129028962806
321.12845049630636 242.4993893119843 177.69654596222736
321.6601798019437 243.30170115958734 178.18720129467033
322.15 244.22 178.63
325.40987065104696 241.00059267454174 184.93638833420638
328.2533925304016 240.90611827870256 188.33831851298868
330.15760710090694 237.1193021798803 189.00207529460016
331.9259723737092 234.82310840499864 191.2829095739966
333.28096291533194 232.33346434637772 193.78758526327212
334.3902718467809 229.31869308561826 196.0100647889366
335.95825990158164 226.98781869181147 198.45813718543698
339.1286009129682 226.99039916894876 201.65650620173136
341.40732596634655 228.8334116102715 203.88140253729463
342.24697418378264 231.41821594981818 206.8043286786432
342.6747392642716 233.93370938606947 209.55677282264048
341.81733416262966 236.67804554848053 212.30255422488347
340.74322468121915 237.7492693662133 216.5057078566157
339.99977654426266 237.1767490979031 221.03364230171076
340.0184067387221 235.37330330539504 225.55897829127318
341.5138367003454 231.90130579454768 226.9381574583156
343.33649057414425 228.43517470009127 227.99640905051945
345.32974176097963 225.27610650781116 229.1912662448802
346.5128121171958 222.2096402277059 231.2838757828374
348.1390902107172 218.56624790503267 232.35601273281873
349.02875775815676 214.96486366957845 234.21887383126722
349.9977479857882 210.8895345892362 235.52437265629555
349.99997492217295 206.0207144083858 237.00027841498547
349.2597238877793 201.31810052553797 237.9120694472633
347.21839049712554 197.40056161270536 238.29243086726513
346.36532318620925 192.61562409050825 238.99855132437753
344.53215595911263 189.09959287421776 238.00081382524428
342.69184896490975 185.56954288468313 237.02505052881386
341.6147208604988 181.50002638745573 235.83409240550685
340.5246636812984 177.30002206007458 234.7742760273213
339.68616313403544 174.13516816899943 232.4273343353585
337.9965242842186 170.78003685117903 231.12179832599568
336.7461437648383 167.3442943057601 229.4665883644939
335.6789380608005 164.4457202223902 227.07946328667293
334.9882364835502 161.5379082695576 224.33063141989123
334.00269058240906 158.51322438462876 221.99433811413218
333.4113712851423 154.68915928018146 220.0623092523188
332.9999549631027 151.4392549265295 217.377116805517
333.00021185292695 147.2448993431786 215.22472377079416
333.59912313261583 143.53053054895406 213.18104101998566
334.1954164273229 139.4065207857568 211.57403786994558
335.27323174993154 135.65419397785067 210.0475887531524
336.99386013675223 131.68627266769045 209.38922111749278
337.0060640489945 126.76356295484631 207.96435040872467
335.91379155681295 123.24504191891562 206.22894188685208
334.38314435616934 120.01471115518949 204.6429608239655
332.0638846710103 117.54431219585359 203.0854552039715
331.00136937493954 114.12391673178558 201.2201382331358
332.0 110.0 200.0
322.32656481594677 244.69707348391842 178.81548898545847
322.674303777427 245.11773519510965 178.98521692008313
323.05576724543874 245.5732059972587 178.99474803294143
323.44824077501346 246.00674763047857 179.05813507493988
323.72667132969644 246.43028021915964 179.23020932999063
323.9164606771602 246.91061417120042 179.43772406585396
324.20070680658904 247.27864450791503 179.66486287388844
324.53837688606075 247.6380083448744 179.85401584007914
324.9440896688901 247.96331904137304 179.99150610197105
325.48299664127234 248.28402431053928 180.00788228767397
326.03396007675036 248.6336806477773 179.9856760494769
326.45375509458637 249.00962660088734 180.06714235047812
326.7782836233271 249.40522844838682 180.22467747474187
327.11243350921 249.70244013523975 180.47083393144678
327.41640337195435 249.89346998437125 180.8533932896933
327.64223921856455 250.16107522866568 181.2375017659346
327.96678264698824 250.35298187823182 181.5986027483877
328.3052702945984 250.56762675430883 181.9230213726579
328.5420192559605 250.87102492566152 182.2604251822408
328.82175572748446 251.21709447564106 182.51217021351368
329.1681379356054 251.48281965448405 182.77761383589632
329.4615395180861 251.7304597815648 183.11412315000837
329.66781026268075 252.073491638259 183.44237156830502
329.86722900218376 252.38886723923707 183.80512824839158
330.1344074691967 252.615594701507 184.18877333950573
330.32095079456604 252.81426603344477 184.6811097025975
330.6402873643937 252.95881342094484 185.0947767656821
331.03484062861077 253.07965731698252 185.45693062584348
331.409621113905 253.23977349935296 185.79958497855142
331.7516166102601 253.45479881542414 186.12011518663962
332.0795187539839 253.6790868175937 186.44547606089733
332.3939575962698 253.86612213824216 186.82155291879107
332.6181421162246 253.99706581185018 187.34397574576843
332.93366405733286 254.00351924508664 187.89955138704408
333.2772265643006 253.99845370232856 188.43860546976373
333.52196038722803 253.99984312038413 189.07003314049425
333.7906206211022 254.0025341093579 189.67623331522944
334.1368901739546 253.99210319792675 190.2179445616766
334.43821633589675 254.02057867119242 190.76569678858107
334.6513617507682 254.17046497258244 191.28021097949556
334.84451561523736 254.36497286859122 191.7701014000109
335.11030934093975 254.59335946850575 192.15351462632148
335.31257788802964 254.79895361159262 192.62294544086768
335.5268877321013 254.94704136068532 193.13919218545786
335.7468060582862 255.06718578845008 193.67279217006632
335.9129471347243 255.22396872507727 194.23938911274624
336.0276617106848 255.42889357187346 194.76618260190926
336.1824998162063 255.66740472054275 195.31096914973256
336.37 255.85 195.78
335.9835517532418 250.57518963369486 198.9762909499173
336.17880014435525 249.11085094301194 200.08369499714524
336.79192050653654 249.3059177013478 201.61909781951726
336.9970864709301 250.11294145729235 203.17560184338302
336.9999408789373 250.82262077972348 205.03457948352215
337.0000041721744 251.2250563432876 207.20351103466527
337.0000000000002 252.2200000000001 208.78000000000034
337.0000156329377 253.47204395166509 210.099368986684
336.99977937386046 254.1835525686492 211.95952520035007
336.9891274292198 255.09342606884306 213.63173221621102
337.44326067722983 255.92934581761125 214.9131077912738
337.98809162408344 256.5857659860784 216.28328525325693
338.0009974833158 257.48206907136375 217.94550445009145
338.0 258.3700000000002 219.6300000000003
338.26950812197055 259.5414011063976 220.76088133800496
338.8779736983325 260.6854692107733 221.58900091262868
338.99824244056697 261.6621064823489 223.05414651408438
339.00005604566854 262.9122934180748 224.37335813432907
339.00000113727896 264.2839374559657 225.57320412927007
338.9999999193905 265.88847659824995 226.54009484773042
339.00000000000017 267.3700000000003 227.63000000000025
339.00000000009464 268.9690011425026 228.6024896289177
338.99999999999875 270.29074557836077 229.85123401563567
339.00000000000017 271.790738533164 230.88030113151282
335.9980050568074 271.64690262643967 237.06799181749997
338.4252315508015 275.0005477011896 242.71710887091808
342.27915826487515 273.2530257619373 248.5452960692015
345.36999999999995 270.15000000000015 253.78000000000034
350.9906677421704 269.24013871659776 258.192655499079
353.0030740695956 273.7035891126933 263.15050586300856
352.99999756139766 277.90464400547773 270.38114033666244
354.0672785535493 277.0101473841195 279.6588000130882
[...]
POINT_DATA 540
SCALARS Labels int 1
LOOKUP_TABLE default
121 121 121 121 121 121 121 121 121 121 121 121 121 121 121 121 121 121 121 121 121 121 121 121 121 121 121 121 121 121 121 121 121 121 121 121 121 121 121 121 121 121 121 121 121 121 121 121 121 121 1 1 1 1 1 1 1 1 1 1 1 1 1 1 1 1 1 1 1 1 1 1 1 1 1 1 1 1 1 1 1 1 1 1 1 1 1 1 1 1 1 1 1 1 1 1 1 1 1 122 122 122 122 122 122 122 122 122 122 122 122 122 122 122 122 122 122 122 122 122 122 122 122 122 122 122 122 122 122 122 122 122 122 122 122 122 122 122 122 122 122 122 122 122 122 122 122 122 0 0 0 0 0 0 0 0 0 0 0 0 0 0 0 0 0 0 0 0 0 0 0 0 0 0 0 0 0 0 0 0 0 0 0 0 0 0 0 0 0 0 0 0 0 0 0 0 0 124 124 124 124 124 124 124 124 124 124 124 124 124 124 124 124 124 124 124 124 124 124 124 124 124 124 124 124 124 124 124 124 124 124 124 124 124 124 124 124 124 124 124 124 124 124 124 124 124 2 2 2 2 2 2 2 2 2 2 2 2 2 2 2 2 2 2 2 2 2 2 2 2 2 2 2 2 2 2 2 2 2 2 2 2 2 2 2 2 2 2 2 2 2 2 2 2 2 21 21 21 21 21 21 21 21 21 21 21 21 21 21 21 21 21 21 21 21 21 21 21 21 21 21 21 21 21 21 21 21 21 21 21 21 21 21 21 21 21 21 21 21 21 21 21 21 21 22 22 22 22 22 22 22 22 22 22 22 22 22 22 22 22 22 22 22 22 22 22 22 22 22 22 22 22 22 22 22 22 22 22 22 22 22 22 22 22 22 22 22 22 22 22 22 22 22 8 8 8 8 8 8 8 8 8 8 8 8 8 8 8 8 8 8 8 8 8 8 8 8 8 8 8 8 8 8 8 8 8 8 8 8 8 8 8 8 8 8 8 8 8 8 8 8 8 81 81 81 81 81 81 81 81 81 81 81 81 81 81 81 81 81 81 81 81 81 81 81 81 81 81 81 81 81 81 81 81 81 81 81 81 81 81 81 81 81 81 81 81 81 81 81 81 81 82 82 82 82 82 82 82 82 82 82 82 82 82 82 82 82 82 82 82 82 82 82 82 82 82 82 82 82 82 82 82 82 82 82 82 82 82 82 82 82 82 82 82 82 82 82 82 82 82