# vtk DataFile Version 2.0
Really cool data
ASCII
DATASET POLYDATA
POINTS 540 float
295.0 215.0 119.0
296.2686667387191 214.72349467993638 119.07624235713291
297.0787458948059 214.32544956904707 119.4337678833923
297.68539141679946 214.01994825040802 120.11090665516035
298.42351919046206 213.9947596292645 120.95510767511007
299.20249535573504 214.1417580360819 121.61483423130532
299.76345017259126 214.50702942990287 122.2830417841727
299.9908060495179 215.07466755334596 123.06099072609537
300.55568610603086 215.233622880931 124.14483378941635
301.9770132842616 217.2862777504077 119.8521409264896
301.99787601128577 217.9497793066053 120.97656466264861
301.94019326304766 218.76188266586843 121.69313600891559
301.6065348919557 219.70446382066697 122.0042915394348
301.11862512401433 220.81384530692856 121.99859859606252
300.5243896725172 221.8101242573795 121.99997788237098
299.7093845468944 222.58741456928607 121.99950356377973
298.76362783487843 223.24360928457423 121.98901922853027
298.13382201077087 224.0333835966552 122.16102641241024
297.9834056753132 225.03472004724375 122.62408212142515
298.20059961781294 225.71892531568787 123.32437293063283
298.58057289982116 226.31803892402303 123.93821632962789
299.1680897113115 226.77762102774352 124.48288199483193
299.63469702506836 227.37787696586383 125.00783435157085
299.95895356972346 228.038552348725 125.61473866003548
299.99755400747324 228.89919353241822 126.30733406856984
300.00032155502504 229.86949569058882 126.92610112491424
300.00005766795556 230.86420274701115 127.52349468764712
299.9999996154596 231.76845552069264 128.21113670057758
300.000014704382 232.72987514419455 128.84153872284313
300.00006854114156 233.74219278470574 129.42100398027497
299.99926595797945 234.96731746088244 129.78851862195492
299.99203380822166 236.12338879301373 130.23151617427547
300.13790376841024 237.1855272956331 130.61534444616132
300.5081334998651 238.01302601215798 131.00945273287536
300.87402207348 238.84950145636765 131.3989254497445
301.0067831780291 239.9122026623822 131.7952998738749
301.00281636944874 241.26156627262665 132.04173980690513
300.9938461618386 242.55965889605164 132.3444541257825
301.2412188273014 243.50480406848152 132.74377302255516
301.8168235129083 244.2600672169657 133.00474192312277
302.50067815563 245.1748009069625 132.99799032680846
303.09608783069314 246.16942156972152 132.99979673437377
303.718630560509 247.13849642232114 133.00001581826538
304.4097367347253 248.03923767118826 133.00000413500806
305.01469195297136 249.02612314937036 133.00000006789176
305.6281999739772 250.00451602861958 132.99999994023952
306.34346712289454 250.88141061952336 132.99999999499715
307.1335685257561 251.6802613656567 133.00000000055599
307.9793447869386 252.3921345090017 133.00000000011042
309.15 252.85 133.0
308.128490783193 254.37549490924567 128.72703404142612
308.8570538318313 255.8175254501884 128.03674992716986
310.0273835417021 257.42071203800793 127.99923585883349
311.82086372313245 258.4448858629752 128.00044094979606
313.50538806693356 259.57010075969384 127.99386091661127
314.00252713521877 261.2966152178838 127.40141024568865
314.40501032926517 262.7486236713865 126.4344589466817
315.6966817482524 263.50546146687594 125.67022598920704
316.2210366454826 264.04742113483854 123.92503148636312
317.06219616340195 264.66947815497156 122.56867412930377
318.35700124692687 265.00041053016804 121.377820019846
320.22009437857633 264.9889433484583 120.41341674771353
321.72253000049096 265.6704988437035 119.78529693690125
321.9979311465016 269.6403490142352 121.20961173572277
321.9996341091817 271.8147875234841 120.56952535857477
322.0045770298268 273.66764594736503 119.61099847566759
322.6008797766047 275.28642244270566 119.009751198185
323.30413310286895 277.3892485965834 118.99950415964359
323.9428104860508 279.567408161748 119.00001400088344
324.0008137416235 282.3257065581121 119.00001012496779
323.9999855655709 285.14308465456025 118.99977842096152
323.9999514479077 287.96170322161385 118.99743032386006
324.0096516953002 290.21054169433046 119.57496515649191
323.4846158820084 291.69217964640126 120.34171592369002
322.5193465655497 295.2209698781659 122.73369640283441
318.54404968866925 299.804939493203 125.02511848872612
314.589884428011 304.67608255773763 127.05672196605235
310.37000000000023 309.0 129.37000000000006
306.0512488049995 312.92171714193785 131.98807181841437
301.81069009753446 318.52342025814664 133.00115172482606
297.4002554061077 323.016221741924 134.9554621220972
293.74935538333517 328.3972369785093 136.7806898333974
291.9992202940093 333.1730497770362 141.11188515166887
292.4061167772588 339.0554184164086 145.68095526936438
294.2200000000003 343.15 150.63000000000017
298.15785235083786 345.9806603853934 154.7186301209035
302.62395559975937 348.0094636326567 159.0808914315107
307.782190588888 349.2695741526832 163.51460463336772
313.40106751279 351.0588930464099 166.968917808454
318.212760043459 353.44047841280513 170.624337380437
322.41312939717466 355.662213194948 175.06891217662152
324.85000000000014 358.37 180.78000000000006
325.9999408651385 362.1517248257004 186.70547541140547
325.9891274237217 366.8928139117508 192.83364176030395
326.9999864442258 371.0284856337419 198.54295652390215
327.48120331089024 375.78852417318717 204.15882190685963
329.20839432469234 379.4473350873206 209.62149687323569
332.0573998129795 381.9980105378926 215.08744623845527
335.37 381.37 222.0
333.85330158196405 387.1893454507058 222.00136308019455
334.0067677562281 390.0743568320695 221.99950862507075
334.6598736142285 392.2879792603439 221.82540395567133
334.99784718438605 394.2871332896674 221.12167891411409
334.9988478193349 396.7802231064793 220.57740350580536
334.79890135511886 399.03405915304916 219.98937579376047
333.8870305267545 401.1405931068469 220.02905710430562
333.0944907283346 402.4597200961135 220.9822415057476
332.54029737506886 403.5086683389749 220.9177035380582
331.27151384180024 404.779259408211 217.05175117387859
330.0011013807204 405.96391912480794 216.5133454563362
329.0142344700742 407.49322690768474 215.98920566728106
327.5602933278699 409.09110336102714 216.00019762102744
326.3971947168087 410.96860401798597 215.9999807327576
324.95355358559806 412.5666249973723 216.0008265137619
323.5098592165238 414.07843129653554 215.91551085552288
322.35027652462685 415.26739920765806 215.22324513201067
321.0996668600911 416.28427168729627 214.44991094965422
320.09106258071955 417.2985062115899 213.43193342678867
319.0715095926201 418.3011656366319 212.41332951339652
317.84412651233254 419.57428632807495 211.8730169587233
317.0142125745378 420.7361091772586 210.8239374140737
316.3888615093145 421.9766134971697 209.64897664505267
315.37602760509293 422.99171794639943 208.63609538322657
314.36529412039107 424.00975202020015 207.623875757279
314.001321867307 425.50217878832603 206.4402133598091
314.1681152933435 426.65393425404415 204.72007001643894
315.29688356416676 426.99497490364564 203.1489998002585
316.86656606896776 427.41668642917705 202.09957906347483
318.3330347011028 428.0099041936549 201.11844909808997
320.16999085849704 427.99329196843337 199.8979767044967
321.91809941243054 428.479220324428 199.09119728787823
323.5871784873235 429.72300624701484 198.963245958828
325.62546107812994 430.03855720481135 198.2762631809002
327.4721281048882 430.7211416194375 197.764698295754
329.05498166335684 431.4786490391785 197.06424294743294
330.93301927131813 432.51331375539655 196.9361289450817
332.5189923399999 433.0097662650771 195.97773819691312
334.6399038505097 432.9990225016213 195.04708961743688
337.5521846702856 433.07988060714274 194.99941221620378
339.79920382331863 433.87125597611373 194.99699041167676
341.62236258827284 434.7901557019139 194.6982325758996
343.7793512038321 434.9985358910746 194.02278505413148
346.80552946343994 435.00002308884365 194.00963418296303
349.13062133793665 434.9999996047572 193.2938863381117
350.9217736542088 435.00000205251683 192.04422091135476
352.7354513384682 434.99992330239644 190.81714868871825
354.8226955244971 435.0021481569436 189.86169980027333
356.0 434.0 189.0
337.8041001267046 379.67798172393776 224.6697695614506
340.26743894243725 377.9170534863938 227.2331961238746
343.61330594843764 376.27779063520325 229.05223853164847
347.88351678260676 376.00110123589906 231.2989590986903
351.6153039104346 376.9985764022865 233.36566932737162
356.08937474934487 377.1058316134681 235.58030390528154
359.01710091587137 379.0235220899606 237.53070855730672
360.9967398570362 380.7580835504305 240.61251551153595
360.592445829502 383.90555604421564 243.8511215213762
358.01476638380615 385.6194176081725 246.35453248377578
355.43754882585944 387.2911162730275 248.90153459362404
352.7891737622159 390.35068234113663 249.98951182942574
350.5891432410676 393.93698651108775 250.99909419252756
348.5963835022857 397.5426954237204 252.18695855229305
346.997821372093 400.19211021625983 254.7445181621318
345.991096890822 402.52595203182193 258.1995767199801
344.9897967788161 404.25701147677603 262.2637020616426
344.5459969357307 405.90434407897453 266.9681838875816
344.000709667507 407.39653773363005 271.72505087601513
345.60450066744664 409.1355337480728 275.17834632148305
347.55162544546323 410.3022421480298 278.857264419555
350.4430425625184 410.9967433486177 282.06439861826317
350.33190255157655 408.9696116110462 286.2043039215556
356.69948615823785 412.9996973123173 287.40244708399763
361.55998776399014 412.99959045908247 289.3384298362801
365.08264947753844 413.95825635225486 291.6530320508646
366.9290089681379 415.5515833576934 295.00911322631595
367.9988483083931 417.7271671786958 298.5596056508272
369.00474864185196 419.6571047334934 302.4197792817762
369.00000109281444 422.5820348848505 306.29551531424045
368.99767478364265 424.78137896298045 310.8897322557797
366.2629835312892 424.75264460413774 314.47864737475317
363.52577195018716 423.10121193531086 316.8922949696037
[...]
POINT_DATA 540
SCALARS Labels int 1
LOOKUP_TABLE default
12 12 12 12 12 12 12 12 12 12 12 12 12 12 12 12 12 12 12 12 12 12 12 12 12 12 12 12 12 12 12 12 12 12 12 12 12 12 12 12 12 12 12 12 12 12 12 12 12 12 8 8 8 8 8 8 8 8 8 8 8 8 8 8 8 8 8 8 8 8 8 8 8 8 8 8 8 8 8 8 8 8 8 8 8 8 8 8 8 8 8 8 8 8 8 8 8 8 8 81 81 81 81 81 81 81 81 81 81 81 81 81 81 81 81 81 81 81 81 81 81 81 81 81 81 81 81 81 81 81 81 81 81 81 81 81 81 81 81 81 81 81 81 81 81 81 81 81 82 82 82 82 82 82 82 82 82 82 82 82 82 82 82 82 82 82 82 82 82 82 82 82 82 82 82 82 82 82 82 82 82 82 82 82 82 82 82 82 82 82 82 82 82 82 82 82 82 122 122 122 122 122 122 122 122 122 122 122 122 122 122 122 122 122 122 122 122 122 122 122 122 122 122 122 122 122 122 122 122 122 122 122 122 122 122 122 122 122 122 122 122 122 122 122 122 122 1 1 1 1 1 1 1 1 1 1 1 1 1 1 1 1 1 1 1 1 1 1 1 1 1 1 1 1 1 1 1 1 1 1 1 1 1 1 1 1 1 1 1 1 1 1 1 1 1 123 123 123 123 123 123 123 123 123 123 123 123 123 123 123 123 123 123 123 123 123 123 123 123 123 123 123 123 123 123 123 123 123 123 123 123 123 123 123 123 123 123 123 123 123 123 123 123 123 2 2 2 2 2 2 2 2 2 2 2 2 2 2 2 2 2 2 2 2 2 2 2 2 2 2 2 2 2 2 2 2 2 2 2 2 2 2 2 2 2 2 2 2 2 2 2 2 2 21 21 21 21 21 21 21 21 21 21 21 21 21 21 21 21 21 21 21 21 21 21 21 21 21 21 21 21 21 21 21 21 21 21 21 21 21 21 21 21 21 21 21 21 21 21 21 21 21 22 22 22 22 22 22 22 22 22 22 22 22 22 22 22 22 22 22 22 22 22 22 22 22 22 22 22 22 22 22 22 22 22 22 22 22 22 22 22 22 22 22 22 22 22 22 22 22 22 0 0 0 0 0 0 0 0 0 0 0 0 0 0 0 0 0 0 0 0 0 0 0 0 0 0 0 0 0 0 0 0 0 0 0 0 0 0 0 0 0 0 0 0 0 0 0 0 0