# vtk DataFile Version 2.0
Really cool data
ASCII
DATASET POLYDATA
POINTS 540 float
311.0 189.0 53.0
309.4129504307133 186.205946289076 53.44203697877468
309.2826048618363 186.00011044477333 57.348999115406166
309.9970031872986 185.999995909604 61.451982223544114
310.0000037719837 186.0017177014463 66.26358338635902
310.0000281204154 186.82139316592477 70.26046023173272
310.12743540717196 190.4189538690711 70.66178871809619
306.7871318879856 192.6206415446214 70.9694170925383
306.372863825824 194.26179829113872 73.93117187571254
306.00803363267755 196.37430711247416 75.97996686837838
305.1041523856967 197.85403669898537 78.41312236373321
304.0014054144035 199.6243056747319 80.35669232972876
303.6767500249843 202.35071893877245 82.11276247308678
302.22887038168477 204.22612248955727 83.61496595995017
301.2793686323132 206.21699601739545 85.49571805027186
300.07993925772746 208.64851507902455 86.68572019021403
298.996282463175 210.3879025514616 88.66975221225461
298.99998663455483 213.27617491796283 90.60136317656789
298.99994289816533 217.13909131052543 91.55484344345122
299.0601657842368 220.70082893349627 92.74920771174448
300.0445358370977 224.29055526062658 92.99227138301374
301.00430730843357 227.25975794622786 93.8779738014499
301.8425583382443 231.11665293757758 93.99997195641349
302.8071471737156 234.86251690865927 94.10582607190058
303.7572661123912 237.3136516611182 95.53989639233198
304.6604726408895 239.0565593542644 96.40840814715379
305.0048482335102 239.91432718948755 97.3902131415548
305.2567897800488 240.7483640850976 98.5052812426243
305.79139724921635 241.31172848021905 99.61128624499477
305.99829648504937 241.96780917295922 100.95296941588977
306.5859875478323 242.65557350153327 101.89167581614522
307.6446173877954 243.22971260019534 102.4445827819367
308.5035561968337 243.81731534129568 103.20944249470698
309.2709650364893 244.5710279013049 103.89268827692234
310.1934366742612 245.1334423858179 104.6118962687017
311.0525112220517 245.665070886376 105.42527505571721
311.9673793947508 246.0034751068645 106.37608427625136
313.3354397572381 246.26565160095257 106.94992905012069
314.8513272749835 246.79970216299185 107.10407260284728
316.19852175845085 246.9982766733911 107.76238524162807
316.89403688754027 247.407630820945 108.86159759763689
317.4533305492318 248.14393495488648 109.77008143463401
318.2249398060648 248.7477850319422 110.59870373297902
318.91235159069356 249.32092923408234 111.5422293739666
319.77114362615106 249.84596789584677 112.36248030467056
320.7002248966494 249.99764560495368 113.48580457101583
321.5241317969562 249.99977855356863 114.86389323385204
322.4804910289043 249.99998719702626 116.11223166080687
322.9805345171121 249.9999995461197 117.82530412174881
323.0 250.0 120.0
324.35242870644845 256.900167558319 116.99251130601478
326.49838392410965 258.99189844188805 117.99953571938566
327.9646001373419 260.87023508554233 119.90401048642106
329.36351957610833 262.62342461570864 121.9926506745291
330.19617924175043 264.68822808259375 124.34008250041816
331.2441242873735 266.41714278838555 126.80812067929858
332.0934825749768 268.51755780705076 129.10324533225884
333.00147128342775 270.7586508201595 131.19906156988253
333.88930869002155 272.86329866830835 133.45147427432357
334.486496555589 275.1619432101288 135.8005398261193
335.0005054571814 277.61362007778763 138.07975201605194
334.9999998799195 280.3329908375389 140.605784792746
334.99999999967923 283.31802305963726 142.86565041007162
334.99999999997556 285.97068712654226 145.45788430200457
335.00000002151455 288.58632128823785 148.08714812034415
334.99999343883707 291.74027943025044 150.17808156530745
334.98603457997604 294.47519440979966 152.6745311252693
333.99781100687966 297.0014310099303 154.40434613849112
333.03682720263146 299.63359564908785 156.05603797620822
332.39412702083854 302.17071546472033 158.1213708332308
331.1104844958467 304.8523022203997 159.40103941842503
329.51597686639633 306.9390301530879 160.96470181534914
328.14374639998834 309.2297319246241 162.54666753658884
326.65561739148785 311.58144573402427 163.95172267786455
324.95112282797396 313.6770202592634 165.39655154068436
323.54666897573486 315.95283921918104 166.96119460476655
321.96470170832106 317.8150581979334 168.76776803861452
320.40108867592613 320.1487188117269 170.10953723919798
318.9597601081696 322.4003334377893 171.6615305965221
317.54417561444285 324.6485397934521 173.23420025498856
316.4718637628717 327.2272607133215 174.83746655528864
315.19067608885103 329.6912163704918 176.33619383822167
313.98896633171404 331.81528064392035 178.25530415630476
312.99625317040096 334.189874760052 180.1315810881595
312.0476353455167 336.7914599437714 181.8326663327703
311.99997904029476 339.68319794085744 184.13310512900964
311.9999999929418 342.24973425679974 186.8114902250959
312.00000000002916 345.12719619453 189.17892625448303
312.0000000004131 347.19962221595154 192.3513981917502
311.9999997514084 349.6715977227389 195.12432092271172
311.99994331402 352.23969042531047 197.80118931667315
312.4450159876279 354.94524248863684 199.89675319093806
313.75655439042197 356.5821716796781 202.1918844836274
314.8071329346884 358.31178498576196 204.65659228478566
315.8536796372771 360.37790016094783 206.7888283650408
317.1050347389952 362.4427359651222 208.71753541809468
318.2560841772364 364.4358893268304 210.8182308833701
319.90164447526627 366.28035902473823 212.57288891281715
321.0 370.0 213.0
321.7337968709539 374.16657830681453 211.99818799932
323.2920780450722 376.50386628966737 211.99997890919573
324.8890820877854 378.80458208681534 211.99978624959084
326.48375893060586 381.03439641826515 211.9263186116515
327.5503615087704 382.9996558775006 211.060221467888
329.1398915561779 385.24808387839386 211.0002203325308
330.91885701327067 387.36685835062804 211.00000107821793
332.4433299233206 389.74034354851835 211.00000000651278
334.26207511729115 391.8195573763466 211.00000016144196
336.2098782789944 393.76972020088886 210.99999327381002
338.16954573340274 395.7144069606268 210.99351830298977
339.8838102914854 396.9814807921418 211.90579090643553
341.2106450508566 398.4056511862121 210.3181885131217
343.1137447627998 399.5146926388581 208.06505629222954
345.4429070803356 400.24415395861183 207.21894525424952
346.45315988696876 401.0108378364509 205.09628507821205
347.6908000231802 401.20548772168684 202.63097987978884
348.0155418745843 402.4159082576824 200.26818481926463
349.2511105287761 403.644098980506 198.83398501947028
351.82044097330345 403.99978031198464 197.86103761177972
354.87702809245025 403.99261036697044 197.0124955805696
357.64347516857947 404.80058954217895 196.688956840683
360.5729385999115 405.0847874817593 196.00340542269834
362.8572228274891 405.9381312776276 195.23965050274776
365.2307787430483 406.73498641007245 194.5100934728381
367.85358558038405 407.036964073564 193.54369675353664
370.3336095608268 407.9202588721604 193.0083538207371
372.61292538903825 408.87760983393497 192.3383275641124
375.2433276177472 409.15802416193316 191.36053000140808
377.19001100805565 410.13342185746814 190.38465740496477
379.142643026026 411.10424085720933 189.4101491918233
381.0978448585367 412.07361037797745 188.4367617926832
383.06917018053747 413.0419485692266 187.4785567072375
384.7897832961388 414.0087134248515 186.26096661619422
386.53940919554884 415.1678107234801 185.27898438992943
388.39600438792 416.003554845869 184.07301434273612
390.10846366538857 416.68544917509035 182.56721425948052
392.0532319193887 417.401173689058 181.33122673784072
393.637884067475 418.15371127141987 179.7711864182059
395.1845376515552 418.989008302083 178.2551786251669
396.7012719614182 419.8152569040011 176.70020243848901
398.26402735548555 420.557433701431 175.10720030150995
400.28912656840873 421.0778922267109 173.76216925702388
401.9909014420362 422.44880878747404 172.92941579083228
403.9630831740228 423.5162796586037 172.07119906370934
405.7472960842685 425.11731840338797 171.55849208316468
407.3073927103836 426.2016150861868 170.30493207979322
408.823717459961 427.40908815503514 169.13129631801206
410.0 429.0 168.0
324.30024894809077 368.81478914193445 216.70137177774313
326.6281316853509 370.24361436673234 218.76090707292167
329.64840073552614 371.73598823002607 220.06459062631657
332.9356856660522 372.43752438485967 221.89209607163687
336.2624054738852 373.64829334574733 223.17093390651863
339.306178439478 374.98619505372443 224.60540307411094
342.08077723278643 376.0065501979581 226.627014478513
345.0125551406111 376.0000037090949 229.51805326024717
347.9474867764646 375.9998374002142 232.3992872610483
350.06082161740386 375.57667103133724 235.67653241806192
350.61945267064834 378.0154321004391 239.36123072295155
351.0005794673135 377.99091614573973 244.80583433642192
350.2726867773637 379.45954975082475 248.27622178788582
354.03597501115456 378.7348161671533 252.65194867832935
355.682260659204 378.800439559651 256.36314474671184
358.2514349971436 377.99515719666346 258.8049149897589
359.819182509981 376.65729013034434 261.7156586501202
361.547364423408 375.90800198260376 265.05441816210146
363.07345873073484 374.74686314899725 268.1778087867555
364.9015848806834 373.7824021692487 271.20736050378554
366.0104485213744 372.58144586786545 274.71997402120115
365.00274389359663 370.9991546577832 277.9613840799641
366.1223735676927 370.8934599771542 282.54652632323433
369.0691739601266 369.99939786389814 284.5220173860878
372.4355648374062 369.0288853196608 286.00132017538846
375.0894035741385 367.57537005306654 287.7098801624165
376.0031371010158 367.158124489844 291.87933238896903
377.33773349280284 368.5856825225884 294.9324202411341
379.07957740063665 370.09519810809707 297.49869272349207
381.42660858614806 371.2488768188219 299.8143105127832
383.7463938891727 372.44942015666686 302.1103084031405
386.2838746806366 372.9972849121921 304.8412893867636
389.19138858952454 373.99542688482677 306.7519600358533
[...]
POINT_DATA 540
SCALARS Labels int 1
LOOKUP_TABLE default
121 121 121 121 121 121 121 121 121 121 121 121 121 121 121 121 121 121 121 121 121 121 121 121 121 121 121 121 121 121 121 121 121 121 121 121 121 121 121 121 121 121 121 121 121 121 121 121 121 121 8 8 8 8 8 8 8 8 8 8 8 8 8 8 8 8 8 8 8 8 8 8 8 8 8 8 8 8 8 8 8 8 8 8 8 8 8 8 8 8 8 8 8 8 8 8 8 8 8 81 81 81 81 81 81 81 81 81 81 81 81 81 81 81 81 81 81 81 81 81 81 81 81 81 81 81 81 81 81 81 81 81 81 81 81 81 81 81 81 81 81 81 81 81 81 81 81 81 82 82 82 82 82 82 82 82 82 82 82 82 82 82 82 82 82 82 82 82 82 82 82 82 82 82 82 82 82 82 82 82 82 82 82 82 82 82 82 82 82 82 82 82 82 82 82 82 82 122 122 122 122 122 122 122 122 122 122 122 122 122 122 122 122 122 122 122 122 122 122 122 122 122 122 122 122 122 122 122 122 122 122 122 122 122 122 122 122 122 122 122 122 122 122 122 122 122 1 1 1 1 1 1 1 1 1 1 1 1 1 1 1 1 1 1 1 1 1 1 1 1 1 1 1 1 1 1 1 1 1 1 1 1 1 1 1 1 1 1 1 1 1 1 1 1 1 123 123 123 123 123 123 123 123 123 123 123 123 123 123 123 123 123 123 123 123 123 123 123 123 123 123 123 123 123 123 123 123 123 123 123 123 123 123 123 123 123 123 123 123 123 123 123 123 123 0 0 0 0 0 0 0 0 0 0 0 0 0 0 0 0 0 0 0 0 0 0 0 0 0 0 0 0 0 0 0 0 0 0 0 0 0 0 0 0 0 0 0 0 0 0 0 0 0 2 2 2 2 2 2 2 2 2 2 2 2 2 2 2 2 2 2 2 2 2 2 2 2 2 2 2 2 2 2 2 2 2 2 2 2 2 2 2 2 2 2 2 2 2 2 2 2 2 21 21 21 21 21 21 21 21 21 21 21 21 21 21 21 21 21 21 21 21 21 21 21 21 21 21 21 21 21 21 21 21 21 21 21 21 21 21 21 21 21 21 21 21 21 21 21 21 21 22 22 22 22 22 22 22 22 22 22 22 22 22 22 22 22 22 22 22 22 22 22 22 22 22 22 22 22 22 22 22 22 22 22 22 22 22 22 22 22 22 22 22 22 22 22 22 22 22