# vtk DataFile Version 2.0
Really cool data
ASCII
DATASET POLYDATA
POINTS 540 float
316.0 203.0 56.0
317.0987459476724 201.00220190172294 53.99219146916271
321.31207432910696 202.00483509066368 55.8871522738129
322.00006392006645 203.9065971452392 60.39946658201412
321.95493282940623 208.64754203477165 62.71665459150946
321.9726472982714 212.1873322276657 66.29552563979352
322.0000034053833 214.61482912427394 70.99741690700043
321.9891274234695 217.27345684655856 75.45170144387878
322.998911065496 219.68078042114814 79.13663540747768
322.9990993422987 221.98909675039016 83.92818026430163
320.62256380499343 223.635249607228 87.00768380520744
318.9895441835626 225.00663056208867 91.10539078407
318.4265378211041 225.68404207298934 96.11604310752789
319.0334523172574 225.99999480625084 102.29308535005303
320.7782690244492 226.2382829009328 107.41232585915844
322.42577648875493 227.8126336193767 111.32162929171385
324.01232314725735 226.99369814323038 117.64132958627208
324.9983188447451 229.32432128741945 121.41224672922796
325.57957459910585 230.00036314755138 127.25679693597672
324.96319545760764 233.65102959114188 131.32455045831324
326.0003882410541 234.16141070971844 136.87899226102525
327.414331797424 236.67710907096975 140.0513993188444
329.2094826370354 238.6840603596408 143.351354964798
330.91546452017246 240.92382138504846 146.5076534072188
331.48649430577615 245.95682671890933 147.99890038186905
331.9998151280505 248.62799105814761 147.63433832841778
331.99838205169635 248.61241829509828 147.66796785353054
331.99563319705254 248.58254740796784 147.73247430917408
331.9916909620993 248.5397084548107 147.82498542274067
331.98667774481737 248.4852314936804 147.94262892162297
331.9807159431871 248.42044658263148 148.08253253321334
331.9739279551889 248.34668377971772 148.2418239849044
331.96643617880324 248.26527314299315 148.41763100408858
331.95836301201035 248.177544730512 148.60708131815835
331.9498308527912 248.08482860032817 148.80730265450632
331.9409620991255 247.98845481049568 149.01542274052494
331.93187914899426 247.8897534190687 149.22856930360652
331.9227044003775 247.79005448410112 149.44387007114395
331.913560251256 247.690688063647 149.65845277052944
331.90456909961006 247.5929842157605 149.86944512915548
331.89585334341996 247.4982729984956 150.0739748744148
331.88753538066635 247.4078844699063 150.26916973369947
331.8797376093297 247.32314868804684 150.4521574344025
331.8725824273902 247.24539571097085 150.620065703916
331.86619223282844 247.1759555967327 150.77002226963273
331.86068942362465 247.11615840338635 150.89915485894497
331.85619639775945 247.0673341889859 151.0045911992453
331.8528355532135 247.0308130115854 151.08345901792632
331.8507292879669 247.00792492923873 151.13288604238045
331.85 247.0 151.15
331.9715065921885 249.51471783443816 147.9096213155339
332.01731550904196 250.93201772333705 146.65138661142743
331.9871766387364 251.3515035458637 147.1269933715755
332.0211704413713 252.27208495829657 146.96782056190492
332.17197200359345 252.90629963054658 147.00386971367703
332.4805951454791 253.4158670079069 147.00172360784484
332.94525894883003 253.77027077384105 146.99856770926425
333.58692159247454 253.94316920803266 147.00060036570636
334.3000911240512 254.04700270007828 146.99982148455726
334.98581606440575 254.17741967775004 147.00003403852318
335.6161163316219 254.36347411508996 147.00000160040884
336.10545057030936 254.69047226127634 146.99999485999632
336.5715617960532 255.04068079190924 147.00000266006197
336.9802691771046 255.44830304076714 146.99999908985157
337.32210626542474 255.92279151313593 147.0000002109657
337.6535331527184 256.407691346251 146.99999998700127
337.95415937259014 256.9233916093584 147.0000000310165
338.2644636333431 257.4294142320149 146.9999997214899
338.51426307860385 257.99593983136054 147.00000104627026
338.70378488566314 258.6227487767838 146.9999972739704
338.8793509463158 259.2635015375722 147.00000416420005
338.99779068931 259.9613891048641 147.00000346736095
338.99536250096526 260.7802031600561 146.99995043185592
339.0704000805514 261.52119568083106 147.000215385161
339.23734618352995 262.1715439577683 146.9993503085291
339.4217291888695 262.80126939146595 147.00133286841046
339.6431805954142 263.3984979826299 146.99922930807824
339.9447668494276 263.9204840154188 146.99275295439347
340.2511344525197 264.32727818070975 147.08709811673756
340.5537875913936 264.6751346525516 147.2543309434482
340.9447111313804 264.9220155434283 147.441731616444
341.44740804497815 265.0038196582432 147.66962339781767
341.96151275152715 264.999838352607 147.9754037310853
342.4752409647439 265.0092024041175 148.29115464249557
342.9842956868053 264.93022717480585 148.51639998033144
343.39582511514465 264.77026708176504 148.76248931128984
343.70544423710163 264.5780818123384 149.0766840228512
344.00747090458765 264.3649514069963 149.37788124993543
344.30762640618605 264.18294444285544 149.71184728479884
344.63325704156244 264.03543124032245 150.05634495885215
344.98353327418926 263.9908871272335 150.4729977589172
345.34883989442744 263.99837858011637 150.94418790884524
345.66057201183827 264.00520655893786 151.4356039521917
345.83530915303385 264.12831590292393 151.95486799767664
345.9729614149971 264.4155252087969 152.34341916487662
346.010626310126 264.7787704194777 152.77344558643526
345.99676373203454 265.201871846031 153.13531069519428
346.0005881450189 265.77851065632956 153.46490498865066
346.0 266.22 153.78
347.4041353157626 257.25881866548644 153.99695940669403
347.99514950253894 253.16356875150697 155.45413323891944
350.18317759784264 249.75362106288156 155.99909713703371
352.22559590038674 246.41526544502418 156.7608818165033
353.96103380100163 243.1296418144751 157.88713381371065
356.40091410798755 240.88972372782035 159.33635921985837
359.63000000000005 240.00000000000006 161.36999999999998
362.1833207132724 238.4666008506906 163.41678679862633
364.9176417666238 237.97198244772298 166.34026302621987
367.2052845167338 237.00308338800403 169.22627330294807
368.76154973978174 236.7313619050215 173.54124070624073
369.00003377901356 234.90272610332997 177.61697803859465
369.00000000484533 232.42569643834327 181.28283929060882
369.00000000000017 230.00000000000014 185.00000000000023
369.01190563602614 227.40583670555878 188.5371548934532
369.99705045013275 224.89303147882256 191.18167437087283
370.2286738694151 222.45904217174873 194.65195569411875
372.2800120499942 220.41353320618845 196.7005561947104
373.55643322699694 219.01279638651337 200.17059333822343
374.82337572892106 217.53032483968826 203.5734424755552
376.6300000000002 216.00000000000006 206.3700000000002
377.6617393346603 215.00219931038924 210.4833171218056
379.0104552798256 214.30001507449344 214.57532624078976
379.7208986689377 213.07023309295766 218.7844516854234
381.00966158095025 212.73107502000215 223.29284161256666
381.0952441704424 210.65994034179218 227.27049567750763
381.99917661176676 209.4134030384905 231.2713711740195
382.0000000000005 207.3700000000001 235.37000000000035
382.0000158403628 204.51820988580405 238.66108239877462
381.7919134481524 200.86972350467076 240.94440665881325
380.9999255278476 197.34686951210026 242.77525398300122
379.96859402493794 193.979691103582 244.51950779748896
378.44352162349844 190.90925756560574 246.06708037056868
377.05657641178294 187.41993064100237 247.33387036533708
375.3700000000003 184.47000000000006 248.85000000000028
373.5745104545662 182.00070109545192 250.71836738038695
371.3429638012469 181.09524013565263 253.73240971417536
369.2213172350356 180.99042847258684 257.6605562178743
368.00253736471694 182.06725832577652 261.5069615992189
368.0952573653201 183.99373693005361 265.6264970004642
369.1211655891765 185.00307372750964 269.73299473824136
370.3700000000003 185.00000000000006 274.6300000000003
372.1867545057932 185.00001583998636 278.9561184775848
373.90730104290026 184.79191326138175 283.17032650416013
374.9323142249237 183.99918720438757 287.4954442643371
375.9523645509527 184.00022870444624 292.6188346452286
375.99978252879373 184.64034171192105 298.07374419934786
375.4075082023635 187.94370925176662 300.3201010218
373.22 189.0 303.22
374.9954999401977 196.20064518557197 302.2633998018997
374.999997449232 199.80011874190473 303.13865373985954
375.00000003320423 203.42624020165252 303.98192310307456
375.0000000009417 206.92646696613429 304.95108405522296
374.99999921008896 209.65611488198888 306.6908231036104
374.999831829005 211.67226549202425 309.1438928675931
374.79190420153407 214.38958695526497 310.68803153198337
373.9916891491331 216.6448162675434 312.1019749224062
373.31597049255276 218.45942214776525 314.081038140706
372.99949454241744 220.81938422138964 315.873987872048
373.0000008980698 223.0935474001183 318.0697188040741
373.0000589176601 225.57874938806648 320.0539625908181
372.99195889582546 227.82932855117753 322.26467116097535
372.05975706177696 230.11503698789815 323.51614864593523
370.7617015853723 232.79918506428731 324.00333281608005
369.9425997146422 235.0178269343493 325.43489276033944
368.8554769890167 236.99053789065297 326.8449011240712
367.93806905042294 238.7341735497735 328.6548262190033
367.00627416517176 240.35239387481886 330.5719975725993
366.95826117740364 241.7208424649134 333.62517620471715
366.0119055597603 242.71613474250526 336.15291367972804
365.99994263512735 244.00467929001687 339.3217924671849
366.0001790020137 244.91055571114418 342.885183411501
366.2038077740694 248.06993613159008 343.9915622161855
366.9956916645137 250.6335892214964 345.10541252428266
368.08078893319293 252.4288502457407 346.6945884683028
368.9960929769479 254.41351313619765 348.2629670608032
369.8779636844869 256.4266833326462 349.8382113555077
369.99983440563113 258.56217372758084 352.05024575544076
369.99955666483663 260.3938649305736 354.68727121800674
369.48644303165906 262.0889422573389 356.94970768470716
368.9998026307368 265.16476509661663 357.8554454742288
[...]
POINT_DATA 540
SCALARS Labels int 1
LOOKUP_TABLE default
121 121 121 121 121 121 121 121 121 121 121 121 121 121 121 121 121 121 121 121 121 121 121 121 121 121 121 121 121 121 121 121 121 121 121 121 121 121 121 121 121 121 121 121 121 121 121 121 121 121 122 122 122 122 122 122 122 122 122 122 122 122 122 122 122 122 122 122 122 122 122 122 122 122 122 122 122 122 122 122 122 122 122 122 122 122 122 122 122 122 122 122 122 122 122 122 122 122 122 2 2 2 2 2 2 2 2 2 2 2 2 2 2 2 2 2 2 2 2 2 2 2 2 2 2 2 2 2 2 2 2 2 2 2 2 2 2 2 2 2 2 2 2 2 2 2 2 2 21 21 21 21 21 21 21 21 21 21 21 21 21 21 21 21 21 21 21 21 21 21 21 21 21 21 21 21 21 21 21 21 21 21 21 21 21 21 21 21 21 21 21 21 21 21 21 21 21 22 22 22 22 22 22 22 22 22 22 22 22 22 22 22 22 22 22 22 22 22 22 22 22 22 22 22 22 22 22 22 22 22 22 22 22 22 22 22 22 22 22 22 22 22 22 22 22 22 8 8 8 8 8 8 8 8 8 8 8 8 8 8 8 8 8 8 8 8 8 8 8 8 8 8 8 8 8 8 8 8 8 8 8 8 8 8 8 8 8 8 8 8 8 8 8 8 8 81 81 81 81 81 81 81 81 81 81 81 81 81 81 81 81 81 81 81 81 81 81 81 81 81 81 81 81 81 81 81 81 81 81 81 81 81 81 81 81 81 81 81 81 81 81 81 81 81 82 82 82 82 82 82 82 82 82 82 82 82 82 82 82 82 82 82 82 82 82 82 82 82 82 82 82 82 82 82 82 82 82 82 82 82 82 82 82 82 82 82 82 82 82 82 82 82 82 123 123 123 123 123 123 123 123 123 123 123 123 123 123 123 123 123 123 123 123 123 123 123 123 123 123 123 123 123 123 123 123 123 123 123 123 123 123 123 123 123 123 123 123 123 123 123 123 123 1 1 1 1 1 1 1 1 1 1 1 1 1 1 1 1 1 1 1 1 1 1 1 1 1 1 1 1 1 1 1 1 1 1 1 1 1 1 1 1 1 1 1 1 1 1 1 1 1 0 0 0 0 0 0 0 0 0 0 0 0 0 0 0 0 0 0 0 0 0 0 0 0 0 0 0 0 0 0 0 0 0 0 0 0 0 0 0 0 0 0 0 0 0 0 0 0 0