# vtk DataFile Version 2.0
Really cool data
ASCII
DATASET POLYDATA
POINTS 540 float
414.0 220.0 35.0
411.0508975705037 220.74651814447398 36.6874320531329
410.8543814921419 224.45915418291932 35.635782928101456
412.4496944598159 224.97372246819398 32.055865385132755
413.99687433049746 222.87953968723855 30.157773709550906
415.419567569208 219.75593491056003 29.21500907614362
416.0001521857268 216.8148221032729 27.246513819888207
416.4136090033256 213.339191199662 25.360500533076703
410.6517069796532 209.2663513787039 23.165372123807686
409.4796750818461 206.02932003885255 22.082846201486582
407.2623965085102 203.83160240457238 21.00804190207232
404.13581343328866 201.4764156723738 21.00001580185512
400.7172766485314 199.40516960606644 20.999997556167283
397.3894318792517 197.2338130656335 20.991594838759305
394.851961681853 195.27896081020046 21.98809167566157
392.0170804631681 192.62814905299018 21.99216832795089
388.48227606998506 191.99956841653074 23.318579048729298
385.0333229455192 191.54625819308825 24.90578203797882
381.23019698142116 190.77850016730974 26.102888828814052
383.2659720552508 195.22555388665248 31.347617229185087
380.8735101868905 195.99876890525093 33.67065903733206
377.18423406862263 196.00012510571545 35.469823248109286
374.45960073320606 196.31595331050434 37.91915759794024
371.83264221185937 196.99465957897215 40.10324049680705
369.6802530412136 198.07993496789445 42.345896766568366
367.90239350546324 199.4239192086854 44.723378092014435
367.00163256146675 201.94556745086598 46.790760727255794
366.78028823290856 205.31867809454576 48.68847088701253
364.1080842720971 206.30453874836948 50.51775300279021
362.811274553128 209.00645621354295 52.009033197834974
361.9107486718762 213.29384327182598 51.69330946442226
361.1047370594195 213.89399201760207 56.404982739601884
361.01091638266865 216.0732338715746 59.61113936340833
359.5665656232013 217.67119457352956 62.05863635078926
357.99147701205345 218.84956337401658 64.79497486253324
358.0030700022023 221.8489203098715 67.29700683518806
357.03880418640927 222.997018063832 70.67443918380158
357.0000091021143 224.0699222183685 75.05253586332809
356.99999996831843 226.00928982327702 78.60295507339141
356.99999259217844 225.99984953362807 84.1021990392314
357.06003083229814 226.52767450010185 89.00276928510667
359.8198388419667 228.25649395704713 90.00511326620861
360.9851164743353 229.00068033409775 93.5855495174257
362.65367064390716 229.1622079457111 97.2453458893825
365.0312077068819 230.06719981479887 99.45260663109327
366.6397217011034 231.86033088715922 101.55084680853659
368.6964847484287 233.07403528985398 103.76050188201488
370.00822015157314 234.37431625608454 106.63787178599983
371.99052327835767 236.50463414827243 108.0148252533485
372.0 238.15 111.85
374.5073670935839 240.09008187411942 110.04712200481661
375.22631275026777 242.08133633266704 109.99870100553792
375.9838521856927 243.97551922438 109.9998134197058
376.76796847558836 245.767929572277 110.07634659757136
376.998960873245 247.54736256940913 110.71898275737085
377.1351262806006 249.17198488897526 111.6112569600542
378.0335486395743 250.53969705204497 111.99808588373462
379.103790210958 251.69591453603363 112.42715593726825
380.7571612218789 252.12825377609252 112.99182706838202
382.4511172809877 252.8183502221201 113.2611750708505
383.42190150605546 253.8748113527618 113.88683026661742
384.3188116683646 255.391869706478 114.1165866487986
385.19487315147086 256.49429498717024 114.80028251968959
386.0580030898142 257.4103978525567 115.67446077748805
386.9179401605141 258.30541495347717 116.57256487949608
387.73395311710374 259.16665836850115 117.54828899415598
388.1777071084643 260.26671420029055 118.65850474665663
389.34797268727795 261.0777794074218 119.31985006936625
390.48361802648213 261.7604149295903 120.16269111627324
391.0036712303882 263.03383445379336 121.02327977725935
391.003322539527 264.6298301190699 122.08109869854839
391.22746131494563 265.7583445225715 123.38067624279587
392.00817331856547 267.00937586986356 124.0023796331949
392.85514828266537 267.9553300525209 124.82390117517146
396.29601995674835 271.53992003683777 128.89877220857548
404.31969731248665 273.81371555084206 137.6981000042335
409.00295725704876 267.9184252633616 146.58893739406824
416.4085283177706 266.00000000533964 156.73432882735165
422.85054411734853 267.8149332128719 167.9537259278515
430.17023646261384 271.8660911889878 176.044738574514
440.3516325912481 272.9887979385766 184.21058987036744
448.374359664736 270.99717993465094 191.64326778904478
452.48674436938666 262.9357469873315 198.93879857097986
452.3797287865008 248.0216674506784 199.640075880082
445.872784685521 237.70855304623933 201.0103616874779
440.1767209302775 231.9998371882965 209.07449918226968
437.00000005712525 232.0000030520263 225.36735004792737
436.9999999999987 228.67851236322727 241.5152470571035
436.55137326700924 221.88544767637228 253.7429433923605
434.9956340652385 213.58606317975878 263.35659645589254
431.6700518202218 205.79214554505208 271.70610362354824
426.03528278707074 198.03764994247206 277.79032607105904
420.57855566466463 188.9109713663658 282.67507565758103
416.45938839927356 178.95122582916466 288.0636750949851
416.6698099535368 170.60100393804345 298.0544293124108
418.9997807166886 169.98858913568927 314.60302844683235
416.1375780169784 171.0000249677618 330.19877753901216
415.26043702324324 175.07573664225936 344.1880469860772
417.0 183.85 353.15
413.8716119691377 177.85291044455974 357.01411607611607
412.05823846456093 175.196235497423 357.83190553293525
410.6771948034176 172.46917609598114 359.0031559142973
409.33801316605735 168.9229704613934 359.40612189433415
407.55215396594343 166.02281975005494 359.9980568780437
404.369713708547 165.00933683029007 358.9063148329375
402.37000000000046 162.62999999999994 358.00000000000034
402.00020413712053 158.15734114441966 357.5567403040923
402.0008754048689 153.42838501959116 356.99931100123166
401.28200120331405 148.86085635217574 357.0000010221001
398.53066767119304 146.327281598372 357.0008064129606
394.35113613962676 146.0009732753818 357.78068085168974
391.7391094670877 145.3478708597055 359.8012593878414
389.3700000000006 143.47000000000003 360.8500000000006
387.05351933897015 141.10275860563362 361.44328300171264
384.97026895857977 138.52933289714963 362.07093185741223
382.68479800290675 136.46096813676846 363.0025423172677
380.574240687768 133.94767549642853 363.66477313662125
378.2150450789456 131.35904494130796 364.00235450485985
375.353529452972 129.723435312417 364.7911339022828
372.63000000000056 128.0 365.63000000000045
369.64033774111897 126.76375951401913 366.6929666858423
368.9994934585751 124.6477753006167 369.2182596114868
369.33526613525873 122.40257547950033 371.922253097081
369.8210363345149 120.47003871974555 374.42330065560895
368.2247206150859 118.59006486165276 376.24334405201967
366.70350099006157 117.44275600106677 378.85738840132393
364.2200000000006 117.00000000000004 381.2200000000005
362.10167397070285 116.97249262355884 384.3598658502205
359.2235298211729 115.47120355271612 385.26106969718757
357.98954302267083 114.66492956611175 388.52648159153387
359.18613337441735 112.9330340301404 390.8875646243378
360.22567414030954 110.29609102828975 392.49238995046414
361.9710513404829 107.24478299553293 393.01133331908306
361.3700000000004 103.63000000000007 392.0000000000004
360.06748182413 100.32920811413895 391.3086934014578
358.97897442235256 98.1701247983388 389.2558345128669
360.1097644286186 97.3267490064781 386.59531841396887
362.0805333782379 100.06238212823597 386.0001404691268
365.20878822624627 101.92750621715119 386.29376045569967
366.96167451641736 101.34519838198959 389.0977371643556
368.3700000000005 99.00000000000004 390.6300000000007
369.90599725390547 97.53632226682043 392.9169863190189
369.47803239648937 93.93714047944333 393.98614238363456
368.17898616357405 91.28004711297731 395.31607800649596
367.32350639586076 88.94540003887944 397.4118551941319
365.5051115638552 87.76464914958679 399.69064147128904
363.913999931275 87.00241057725445 402.6304208490712
361.0 86.0 404.0
416.8516542084483 186.52922367231307 356.3941769435274
416.11834923354155 190.8703909979807 357.4112221897259
415.31121708471767 195.53370869973875 358.02240634353086
414.9979294281528 199.58724639334443 359.73721364705295
414.07368138310136 202.5348839770429 361.9469606713645
414.0000693015056 205.49399468023432 364.99587053963864
413.7305492926492 208.52669692782254 367.7752809362506
412.71162283100097 211.7868056811655 369.577878362075
412.0003237626738 214.06965997520538 372.66532690844195
411.1869633801815 217.10549485569925 374.90024172149464
411.3451227588237 219.5953006634953 377.956819753447
412.6249459231748 220.99213973714316 381.36255251091654
413.00001736755536 224.25465492543566 383.80654880782623
412.9881099076977 228.25182306973463 385.8791195254235
411.80587790658427 231.4532724713468 387.5684205543521
410.0976558023314 234.67895884556603 388.7335275574475
408.5160517463492 237.9069881220268 389.9968204458803
406.81738215392255 241.7936835434936 389.5081378144646
404.9882706547795 245.53651446954467 389.0032058384012
402.70857116721913 248.28739838529486 390.0451936389161
401.20469988927346 250.30823721092042 392.6107521376205
400.0182947155267 250.99036629150297 396.8238467828603
400.00001267267675 252.95349755808613 400.92404800828155
400.14192116267816 255.2015735291907 404.6157707910533
400.9993992716608 256.3830758974053 408.65834018126503
402.0163391078763 258.1726549555102 411.9325772853907
403.67218339725974 259.0006672656182 415.53115706479406
405.21914029676356 259.0000002884756 420.0665736685253
406.46501006493384 259.00000000042087 424.90233687340947
407.7340805089678 259.00000098598707 429.714898096883
408.7529236489399 259.00295071918435 434.7747378767747
409.00004550693586 259.9577422715738 439.6544571194508
409.0000000134378 261.32908500411196 444.3647925334717
[...]
POINT_DATA 540
SCALARS Labels int 1
LOOKUP_TABLE default
12 12 12 12 12 12 12 12 12 12 12 12 12 12 12 12 12 12 12 12 12 12 12 12 12 12 12 12 12 12 12 12 12 12 12 12 12 12 12 12 12 12 12 12 12 12 12 12 12 12 2 2 2 2 2 2 2 2 2 2 2 2 2 2 2 2 2 2 2 2 2 2 2 2 2 2 2 2 2 2 2 2 2 2 2 2 2 2 2 2 2 2 2 2 2 2 2 2 2 21 21 21 21 21 21 21 21 21 21 21 21 21 21 21 21 21 21 21 21 21 21 21 21 21 21 21 21 21 21 21 21 21 21 21 21 21 21 21 21 21 21 21 21 21 21 21 21 21 22 22 22 22 22 22 22 22 22 22 22 22 22 22 22 22 22 22 22 22 22 22 22 22 22 22 22 22 22 22 22 22 22 22 22 22 22 22 22 22 22 22 22 22 22 22 22 22 22 122 122 122 122 122 122 122 122 122 122 122 122 122 122 122 122 122 122 122 122 122 122 122 122 122 122 122 122 122 122 122 122 122 122 122 122 122 122 122 122 122 122 122 122 122 122 122 122 122 123 123 123 123 123 123 123 123 123 123 123 123 123 123 123 123 123 123 123 123 123 123 123 123 123 123 123 123 123 123 123 123 123 123 123 123 123 123 123 123 123 123 123 123 123 123 123 123 123 1 1 1 1 1 1 1 1 1 1 1 1 1 1 1 1 1 1 1 1 1 1 1 1 1 1 1 1 1 1 1 1 1 1 1 1 1 1 1 1 1 1 1 1 1 1 1 1 1 0 0 0 0 0 0 0 0 0 0 0 0 0 0 0 0 0 0 0 0 0 0 0 0 0 0 0 0 0 0 0 0 0 0 0 0 0 0 0 0 0 0 0 0 0 0 0 0 0 8 8 8 8 8 8 8 8 8 8 8 8 8 8 8 8 8 8 8 8 8 8 8 8 8 8 8 8 8 8 8 8 8 8 8 8 8 8 8 8 8 8 8 8 8 8 8 8 8 81 81 81 81 81 81 81 81 81 81 81 81 81 81 81 81 81 81 81 81 81 81 81 81 81 81 81 81 81 81 81 81 81 81 81 81 81 81 81 81 81 81 81 81 81 81 81 81 81 82 82 82 82 82 82 82 82 82 82 82 82 82 82 82 82 82 82 82 82 82 82 82 82 82 82 82 82 82 82 82 82 82 82 82 82 82 82 82 82 82 82 82 82 82 82 82 82 82